# y+ ()         
# Time          	patch           	min             	max             	average         
3000            	propeller	5.75809359e+00	1.39172465e+03	9.25335320e+01
