# Force         
# CofR          : (0.00000000e+00 0.00000000e+00 0.00000000e+00)
#
# Time          	total_x total_y total_z	pressure_x pressure_y pressure_z	viscous_x viscous_y viscous_z
1                1.95106956e+02 -1.90037231e+00 -1.09670867e+00 1.99433453e+02 -4.69323549e-01 -8.76463277e-01 -4.32649662e+00 -1.43104876e+00 -2.20245391e-01
2                6.76659324e+02 -5.26812963e+00 1.69527447e+00 6.79619360e+02 -4.63828205e+00 1.92939648e+00 -2.96003690e+00 -6.29847576e-01 -2.34122006e-01
3                1.12385275e+03 -6.56592980e+00 2.90539019e+00 1.12667424e+03 -6.33013715e+00 3.10330282e+00 -2.82149724e+00 -2.35792652e-01 -1.97912625e-01
4                1.40810712e+03 -5.43739085e+00 1.43428431e+00 1.41101933e+03 -5.46118627e+00 1.59549749e+00 -2.91221717e+00 2.37954295e-02 -1.61213183e-01
5                1.50374424e+03 -2.88805850e+00 -2.04736962e+00 1.50674116e+03 -3.04100228e+00 -1.93870323e+00 -2.99692325e+00 1.52943777e-01 -1.08666390e-01
6                1.44362781e+03 -2.50226851e-01 -5.80837123e+00 1.44669207e+03 -4.71307797e-01 -5.72688351e+00 -3.06426598e+00 2.21080946e-01 -8.14877171e-02
7                1.29167859e+03 2.24698797e+00 -9.17133710e+00 1.29483579e+03 2.05254042e+00 -9.10426488e+00 -3.15720097e+00 1.94447553e-01 -6.70722188e-02
8                1.11396509e+03 4.12138851e+00 -1.15626588e+01 1.11718329e+03 4.02880140e+00 -1.14871432e+01 -3.21820054e+00 9.25871167e-02 -7.55155475e-02
9                9.61501083e+02 5.73298519e+00 -1.21297237e+01 9.64581747e+02 5.77362734e+00 -1.20512970e+01 -3.08066407e+00 -4.06421546e-02 -7.84266995e-02
10               8.62408585e+02 7.21338591e+00 -1.10170818e+01 8.65172992e+02 7.33910059e+00 -1.09433224e+01 -2.76440668e+00 -1.25714683e-01 -7.37593345e-02
11               8.19633594e+02 8.57703196e+00 -9.05394541e+00 8.22030116e+02 8.75027682e+00 -8.99055665e+00 -2.39652168e+00 -1.73244854e-01 -6.33887624e-02
12               8.19384736e+02 1.01454914e+01 -6.79876132e+00 8.21476318e+02 1.03441239e+01 -6.75074237e+00 -2.09158119e+00 -1.98632417e-01 -4.80189534e-02
13               8.42094447e+02 1.20852708e+01 -4.57734047e+00 8.43983945e+02 1.22885529e+01 -4.54389422e+00 -1.88949781e+00 -2.03282043e-01 -3.34462432e-02
14               8.70817687e+02 1.41483789e+01 -2.55340511e+00 8.72624575e+02 1.43361135e+01 -2.53401389e+00 -1.80688817e+00 -1.87734557e-01 -1.93912217e-02
15               8.93764970e+02 1.59251312e+01 -8.42884173e-01 8.95575239e+02 1.60929065e+01 -8.25845148e-01 -1.81026881e+00 -1.67775382e-01 -1.70390249e-02
16               9.05157111e+02 1.69666937e+01 8.59550919e-01 9.07033697e+02 1.71059469e+01 8.69596932e-01 -1.87658607e+00 -1.39253236e-01 -1.00460134e-02
17               9.04025902e+02 1.74051286e+01 2.47305708e+00 9.05995710e+02 1.75092412e+01 2.47968709e+00 -1.96980788e+00 -1.04112579e-01 -6.63000764e-03
18               8.92561280e+02 1.73876021e+01 4.07621342e+00 8.94616595e+02 1.74533227e+01 4.07899624e+00 -2.05531567e+00 -6.57206572e-02 -2.78282189e-03
19               8.74455819e+02 1.70071212e+01 5.62240332e+00 8.76584302e+02 1.70387234e+01 5.62199187e+00 -2.12848303e+00 -3.16021428e-02 4.11447780e-04
20               8.53206882e+02 1.65841467e+01 7.04403221e+00 8.55401111e+02 1.65807609e+01 7.04289165e+00 -2.19422906e+00 3.38574141e-03 1.14056123e-03
21               8.31704636e+02 1.62253082e+01 8.19225681e+00 8.33961605e+02 1.61954589e+01 8.19697134e+00 -2.25696855e+00 2.98493551e-02 -4.71452950e-03
22               8.11536514e+02 1.59225343e+01 8.88146008e+00 8.13853109e+02 1.58707049e+01 8.89013237e+00 -2.31659445e+00 5.18293958e-02 -8.67229432e-03
23               7.93087387e+02 1.56557794e+01 9.06747788e+00 7.95461422e+02 1.55789257e+01 9.08003901e+00 -2.37403473e+00 7.68537500e-02 -1.25611301e-02
24               7.75949920e+02 1.54322364e+01 8.79403957e+00 7.78388234e+02 1.53376212e+01 8.81105616e+00 -2.43831367e+00 9.46152161e-02 -1.70165915e-02
25               7.59435086e+02 1.52646504e+01 8.19644303e+00 7.61937062e+02 1.51543249e+01 8.21475374e+00 -2.50197590e+00 1.10325525e-01 -1.83107107e-02
26               7.42749590e+02 1.51855102e+01 7.36932787e+00 7.45318838e+02 1.50560960e+01 7.39215307e+00 -2.56924775e+00 1.29414197e-01 -2.28251957e-02
27               7.25628838e+02 1.52680833e+01 6.49367650e+00 7.28265326e+02 1.51248651e+01 6.52699065e+00 -2.63648785e+00 1.43218214e-01 -3.33141477e-02
28               7.08171617e+02 1.55645602e+01 5.66378853e+00 7.10874712e+02 1.54072443e+01 5.71256296e+00 -2.70309516e+00 1.57315934e-01 -4.87744330e-02
29               6.90609803e+02 1.61208438e+01 4.84639467e+00 6.93376545e+02 1.59488931e+01 4.91174540e+00 -2.76674208e+00 1.71950675e-01 -6.53507315e-02
30               6.73251160e+02 1.69084360e+01 4.08192010e+00 6.76079842e+02 1.67213266e+01 4.16170581e+00 -2.82868134e+00 1.87109463e-01 -7.97857108e-02
31               6.56419241e+02 1.78386727e+01 3.42013152e+00 6.59306754e+02 1.76386301e+01 3.50968204e+00 -2.88751361e+00 2.00042613e-01 -8.95505222e-02
32               6.40219798e+02 1.88287377e+01 2.89298597e+00 6.43164292e+02 1.86199709e+01 2.98792434e+00 -2.94449388e+00 2.08766747e-01 -9.49383717e-02
33               6.24924357e+02 1.97758732e+01 2.49349635e+00 6.27927198e+02 1.95595365e+01 2.59313269e+00 -3.00284097e+00 2.16336619e-01 -9.96363420e-02
34               6.10695301e+02 2.05544093e+01 2.22274622e+00 6.13754654e+02 2.03342458e+01 2.32571273e+00 -3.05935307e+00 2.20163458e-01 -1.02966518e-01
35               5.97638201e+02 2.12244961e+01 2.05623993e+00 6.00750476e+02 2.10006609e+01 2.16131885e+00 -3.11227493e+00 2.23835155e-01 -1.05078925e-01
36               5.85869600e+02 2.17902503e+01 1.95396662e+00 5.89029508e+02 2.15611565e+01 2.05727917e+00 -3.15990820e+00 2.29093779e-01 -1.03312549e-01
37               5.75471036e+02 2.22281026e+01 1.83063310e+00 5.78673923e+02 2.19975485e+01 1.93489828e+00 -3.20288771e+00 2.30554114e-01 -1.04265177e-01
38               5.66439147e+02 2.24570078e+01 1.59455634e+00 5.69681666e+02 2.22274277e+01 1.70212797e+00 -3.24251946e+00 2.29580102e-01 -1.07571635e-01
39               5.58632634e+02 2.24836840e+01 1.20468743e+00 5.61910573e+02 2.22573988e+01 1.31736041e+00 -3.27793946e+00 2.26285176e-01 -1.12672982e-01
40               5.51895571e+02 2.23389811e+01 6.72449619e-01 5.55205130e+02 2.21198440e+01 7.92781887e-01 -3.30955864e+00 2.19137138e-01 -1.20332268e-01
41               5.46070168e+02 2.20807215e+01 8.11997184e-02 5.49407778e+02 2.18711627e+01 2.11302151e-01 -3.33760988e+00 2.09558760e-01 -1.30102433e-01
42               5.40988984e+02 2.17798034e+01 -5.42200597e-01 5.44350917e+02 2.15797103e+01 -4.01777757e-01 -3.36193255e+00 2.00093082e-01 -1.40422840e-01
43               5.36494925e+02 2.15656234e+01 -1.13718480e+00 5.39875265e+02 2.13743720e+01 -9.86469712e-01 -3.38033974e+00 1.91251378e-01 -1.50715088e-01
44               5.32655875e+02 2.14985300e+01 -1.68987151e+00 5.36052195e+02 2.13167629e+01 -1.52864997e+00 -3.39632044e+00 1.81767034e-01 -1.61221540e-01
45               5.29446520e+02 2.15200496e+01 -2.10539902e+00 5.32855910e+02 2.13506722e+01 -1.93528559e+00 -3.40939026e+00 1.69377353e-01 -1.70113427e-01
46               5.26868371e+02 2.15927314e+01 -2.32406891e+00 5.30291201e+02 2.14363650e+01 -2.14691075e+00 -3.42283042e+00 1.56366370e-01 -1.77158159e-01
47               5.24903370e+02 2.17301499e+01 -2.35888716e+00 5.28337846e+02 2.15859458e+01 -2.17615471e+00 -3.43447589e+00 1.44204050e-01 -1.82732459e-01
48               5.23542132e+02 2.19271780e+01 -2.20488393e+00 5.26986528e+02 2.17965536e+01 -2.01880110e+00 -3.44439603e+00 1.30624369e-01 -1.86082836e-01
49               5.22832369e+02 2.21368665e+01 -1.89964157e+00 5.26286404e+02 2.20194384e+01 -1.71218002e+00 -3.45403451e+00 1.17428091e-01 -1.87461549e-01
50               5.22808458e+02 2.23186529e+01 -1.52162827e+00 5.26270852e+02 2.22141026e+01 -1.33262993e+00 -3.46239352e+00 1.04550346e-01 -1.88998340e-01
51               5.23555461e+02 2.24317961e+01 -1.09831021e+00 5.27025100e+02 2.23402055e+01 -9.07460667e-01 -3.46963964e+00 9.15905714e-02 -1.90849545e-01
52               5.25090146e+02 2.24674348e+01 -5.99620311e-01 5.28566814e+02 2.23902234e+01 -4.07803125e-01 -3.47666794e+00 7.72113590e-02 -1.91817186e-01
53               5.27351116e+02 2.23972747e+01 -8.14075389e-02 5.30833597e+02 2.23336521e+01 1.09292103e-01 -3.48248138e+00 6.36225853e-02 -1.90699641e-01
54               5.30270628e+02 2.21991300e+01 4.12031314e-01 5.33759238e+02 2.21477250e+01 5.98818560e-01 -3.48861046e+00 5.14049858e-02 -1.86787246e-01
55               5.33599312e+02 2.19158754e+01 8.45671848e-01 5.37092785e+02 2.18750506e+01 1.02636474e+00 -3.49347383e+00 4.08247725e-02 -1.80692894e-01
56               5.37266705e+02 2.15358126e+01 1.19019017e+00 5.40762527e+02 2.15036632e+01 1.36464475e+00 -3.49582178e+00 3.21493953e-02 -1.74454576e-01
57               5.41041226e+02 2.10578870e+01 1.39547868e+00 5.44536864e+02 2.10321060e+01 1.56399296e+00 -3.49563754e+00 2.57810119e-02 -1.68514279e-01
58               5.44805737e+02 2.05485098e+01 1.43492006e+00 5.48299748e+02 2.05282689e+01 1.59699051e+00 -3.49401131e+00 2.02409050e-02 -1.62070447e-01
59               5.48455135e+02 2.00595645e+01 1.32328765e+00 5.51946182e+02 2.00432172e+01 1.47697602e+00 -3.49104621e+00 1.63473018e-02 -1.53688373e-01
60               5.52006021e+02 1.96073648e+01 1.09845062e+00 5.55494643e+02 1.95932097e+01 1.24380954e+00 -3.48862253e+00 1.41551636e-02 -1.45358912e-01
61               5.55437546e+02 1.91838229e+01 7.88453102e-01 5.58922913e+02 1.91707554e+01 9.25123481e-01 -3.48536666e+00 1.30674582e-02 -1.36670379e-01
62               5.58699155e+02 1.87906827e+01 4.09692912e-01 5.62180973e+02 1.87776002e+01 5.38208264e-01 -3.48181772e+00 1.30824907e-02 -1.28515352e-01
63               5.61754462e+02 1.84053249e+01 -5.02073543e-02 5.65232127e+02 1.83912420e+01 6.98662584e-02 -3.47766537e+00 1.40828933e-02 -1.20073613e-01
64               5.64605271e+02 1.80257782e+01 -5.80758079e-01 5.68079744e+02 1.80096036e+01 -4.69209960e-01 -3.47447301e+00 1.61745531e-02 -1.11548119e-01
65               5.67227353e+02 1.76642739e+01 -1.15856085e+00 5.70699184e+02 1.76457147e+01 -1.05505072e+00 -3.47183049e+00 1.85591151e-02 -1.03510130e-01
66               5.69586063e+02 1.73356664e+01 -1.79547591e+00 5.73054491e+02 1.73134841e+01 -1.69984059e+00 -3.46842823e+00 2.21823310e-02 -9.56353168e-02
67               5.71644667e+02 1.70131641e+01 -2.51359580e+00 5.75110130e+02 1.69864163e+01 -2.42501961e+00 -3.46546290e+00 2.67477915e-02 -8.85761855e-02
68               5.73384559e+02 1.66528001e+01 -3.28799626e+00 5.76845804e+02 1.66219251e+01 -3.20615956e+00 -3.46124456e+00 3.08749331e-02 -8.18367005e-02
69               5.74816883e+02 1.62273714e+01 -4.06982533e+00 5.78271995e+02 1.61919105e+01 -3.99383541e+00 -3.45511235e+00 3.54609550e-02 -7.59899213e-02
70               5.75914887e+02 1.57235083e+01 -4.81768861e+00 5.79363680e+02 1.56831952e+01 -4.74660533e+00 -3.44879346e+00 4.03131347e-02 -7.10832839e-02
71               5.76681673e+02 1.51402312e+01 -5.51124012e+00 5.80125110e+02 1.50949610e+01 -5.44467548e+00 -3.44343674e+00 4.52702337e-02 -6.65646377e-02
72               5.77097964e+02 1.44910937e+01 -6.12416838e+00 5.80534812e+02 1.44410233e+01 -6.06033191e+00 -3.43684742e+00 5.00704263e-02 -6.38364718e-02
73               5.77204063e+02 1.38053482e+01 -6.66928654e+00 5.80632626e+02 1.37501787e+01 -6.60689868e+00 -3.42856278e+00 5.51695319e-02 -6.23878545e-02
74               5.76997811e+02 1.31105528e+01 -7.10309927e+00 5.80417043e+02 1.30502803e+01 -7.04175470e+00 -3.41923222e+00 6.02725592e-02 -6.13445688e-02
75               5.76487684e+02 1.24201655e+01 -7.40270057e+00 5.79896758e+02 1.23549859e+01 -7.34180282e+00 -3.40907369e+00 6.51796070e-02 -6.08977494e-02
76               5.75666752e+02 1.17653744e+01 -7.56864873e+00 5.79064444e+02 1.16955223e+01 -7.50742158e+00 -3.39769155e+00 6.98520253e-02 -6.12271521e-02
77               5.74550724e+02 1.11495623e+01 -7.59526897e+00 5.77935960e+02 1.10758009e+01 -7.53323414e+00 -3.38523577e+00 7.37614318e-02 -6.20348273e-02
78               5.73170289e+02 1.05799934e+01 -7.48856922e+00 5.76540924e+02 1.05029542e+01 -7.42581438e+00 -3.37063496e+00 7.70391827e-02 -6.27548396e-02
79               5.71566140e+02 1.00774713e+01 -7.26092256e+00 5.74920493e+02 9.99793610e+00 -7.19781198e+00 -3.35435307e+00 7.95352340e-02 -6.31105751e-02
80               5.69770799e+02 9.64693244e+00 -6.91532762e+00 5.73108253e+02 9.56429324e+00 -6.85215175e+00 -3.33745394e+00 8.26391933e-02 -6.31758786e-02
81               5.67813668e+02 9.28491650e+00 -6.47557360e+00 5.71133202e+02 9.19991519e+00 -6.41331580e+00 -3.31953417e+00 8.50013078e-02 -6.22577955e-02
82               5.65757292e+02 9.01596302e+00 -5.97219104e+00 5.69057787e+02 8.92926603e+00 -5.91120981e+00 -3.30049513e+00 8.66969912e-02 -6.09812249e-02
83               5.63675156e+02 8.86231458e+00 -5.44945843e+00 5.66955781e+02 8.77411144e+00 -5.39034499e+00 -3.28062483e+00 8.82031440e-02 -5.91134448e-02
84               5.61594239e+02 8.79391699e+00 -4.95848077e+00 5.64854542e+02 8.70450728e+00 -4.90065314e+00 -3.26030288e+00 8.94097091e-02 -5.78276344e-02
85               5.59571203e+02 8.81024744e+00 -4.53447642e+00 5.62810799e+02 8.71901306e+00 -4.47805557e+00 -3.23959564e+00 9.12343796e-02 -5.64208508e-02
86               5.57677283e+02 8.88763756e+00 -4.18191431e+00 5.60895501e+02 8.79467502e+00 -4.12678422e+00 -3.21821770e+00 9.29625448e-02 -5.51300991e-02
87               5.55979207e+02 9.01438712e+00 -3.90415999e+00 5.59175725e+02 8.91987516e+00 -3.84936466e+00 -3.19651774e+00 9.45119663e-02 -5.47953289e-02
88               5.54492944e+02 9.14254888e+00 -3.69819924e+00 5.57667487e+02 9.04719294e+00 -3.64354250e+00 -3.17454213e+00 9.53559442e-02 -5.46567348e-02
89               5.53277274e+02 9.24073612e+00 -3.54887625e+00 5.56429171e+02 9.14468404e+00 -3.49405987e+00 -3.15189744e+00 9.60520791e-02 -5.48163788e-02
90               5.52370397e+02 9.27545397e+00 -3.42968915e+00 5.55499226e+02 9.17899519e+00 -3.37384300e+00 -3.12882936e+00 9.64587814e-02 -5.58461421e-02
91               5.51824112e+02 9.24170803e+00 -3.31539974e+00 5.54928281e+02 9.14536710e+00 -3.25781033e+00 -3.10416879e+00 9.63409352e-02 -5.75894062e-02
92               5.51718367e+02 9.16194697e+00 -3.17818614e+00 5.54794928e+02 9.06592680e+00 -3.11900931e+00 -3.07656173e+00 9.60201653e-02 -5.91768352e-02
93               5.52107479e+02 9.01644993e+00 -2.99426187e+00 5.55155217e+02 8.91973679e+00 -2.93382587e+00 -3.04773871e+00 9.67131428e-02 -6.04359960e-02
94               5.53023405e+02 8.79841344e+00 -2.72221876e+00 5.56041410e+02 8.70062536e+00 -2.65873144e+00 -3.01800461e+00 9.77880775e-02 -6.34873197e-02
95               5.54566953e+02 8.53493602e+00 -2.35364865e+00 5.57554210e+02 8.43772739e+00 -2.28561229e+00 -2.98725621e+00 9.72086363e-02 -6.80363683e-02
96               5.56718332e+02 8.27041689e+00 -1.90361879e+00 5.59673446e+02 8.17576659e+00 -1.83137946e+00 -2.95511421e+00 9.46503025e-02 -7.22393277e-02
97               5.59489952e+02 8.01796249e+00 -1.39292040e+00 5.62410865e+02 7.92617796e+00 -1.31854642e+00 -2.92091282e+00 9.17845300e-02 -7.43739804e-02
98               5.62870993e+02 7.76928359e+00 -7.89403681e-01 5.65756190e+02 7.68050144e+00 -7.13837109e-01 -2.88519697e+00 8.87821496e-02 -7.55665722e-02
99               5.66842752e+02 7.50359248e+00 -1.12108923e-01 5.69689960e+02 7.41814032e+00 -3.63557540e-02 -2.84720798e+00 8.54521557e-02 -7.57531686e-02
100              5.71371736e+02 7.17254590e+00 6.31882672e-01 5.74178425e+02 7.09066415e+00 7.07176198e-01 -2.80668923e+00 8.18817512e-02 -7.52935259e-02
101              5.76458860e+02 6.73586147e+00 1.41531739e+00 5.79222213e+02 6.65802638e+00 1.49074678e+00 -2.76335324e+00 7.78350893e-02 -7.54293925e-02
102              5.82129128e+02 6.19780110e+00 2.21169357e+00 5.84847767e+02 6.12372946e+00 2.28633463e+00 -2.71863909e+00 7.40716407e-02 -7.46410599e-02
103              5.88376811e+02 5.62126141e+00 2.97456758e+00 5.91046965e+02 5.55219260e+00 3.04797279e+00 -2.67015376e+00 6.90688045e-02 -7.34052033e-02
104              5.95228870e+02 5.03904394e+00 3.70821147e+00 5.97846163e+02 4.97504349e+00 3.77934489e+00 -2.61729361e+00 6.40004503e-02 -7.11334208e-02
105              6.02673221e+02 4.53970815e+00 4.42988990e+00 6.05233258e+02 4.48202124e+00 4.49893131e+00 -2.56003656e+00 5.76869151e-02 -6.90414101e-02
106              6.10712465e+02 4.15999552e+00 5.15463378e+00 6.13214683e+02 4.10898204e+00 5.22395202e+00 -2.50221807e+00 5.10134824e-02 -6.93182421e-02
107              6.19326752e+02 3.86173023e+00 5.84987903e+00 6.21769289e+02 3.81840419e+00 5.92017887e+00 -2.44253667e+00 4.33260380e-02 -7.02998389e-02
108              6.28522004e+02 3.62076711e+00 6.49041804e+00 6.30903907e+02 3.58472137e+00 6.56157285e+00 -2.38190338e+00 3.60457387e-02 -7.11548125e-02
109              6.38293858e+02 3.41834292e+00 7.06959591e+00 6.40614436e+02 3.38890449e+00 7.14273416e+00 -2.32057752e+00 2.94384335e-02 -7.31382465e-02
110              6.48695971e+02 3.26362189e+00 7.58920271e+00 6.50954085e+02 3.24116404e+00 7.66618188e+00 -2.25811353e+00 2.24578511e-02 -7.69791658e-02
111              6.59803025e+02 3.11927808e+00 8.04937343e+00 6.61998216e+02 3.10431073e+00 8.13286419e+00 -2.19519171e+00 1.49673443e-02 -8.34907611e-02
112              6.71657982e+02 2.94903339e+00 8.43644412e+00 6.73790484e+02 2.94292328e+00 8.52659648e+00 -2.13250212e+00 6.11011205e-03 -9.01523639e-02
113              6.84352631e+02 2.79646788e+00 8.78696422e+00 6.86423759e+02 2.79973425e+00 8.88476262e+00 -2.07112857e+00 -3.26637300e-03 -9.77983966e-02
114              6.97918369e+02 2.68861275e+00 9.14917261e+00 6.99930733e+02 2.70126020e+00 9.25115058e+00 -2.01236339e+00 -1.26474513e-02 -1.01977970e-01
115              7.12275239e+02 2.60002450e+00 9.53789977e+00 7.14231858e+02 2.62246977e+00 9.64319805e+00 -1.95661887e+00 -2.24452665e-02 -1.05298280e-01
116              7.27362367e+02 2.51975386e+00 9.94668908e+00 7.29265712e+02 2.55024351e+00 1.00531750e+01 -1.90334573e+00 -3.04896515e-02 -1.06485910e-01
117              7.43117499e+02 2.48353662e+00 1.04031213e+01 7.44976522e+02 2.52153844e+00 1.05013795e+01 -1.85902306e+00 -3.80018174e-02 -9.82581683e-02
118              7.59469714e+02 2.55324226e+00 1.09216264e+01 7.61287492e+02 2.59470454e+00 1.10179121e+01 -1.81777841e+00 -4.14622826e-02 -9.62856267e-02
119              7.76366340e+02 2.67852387e+00 1.15406260e+01 7.78146903e+02 2.73188769e+00 1.16417047e+01 -1.78056250e+00 -5.33638228e-02 -1.01078670e-01
120              7.93707940e+02 2.83582392e+00 1.22580215e+01 7.95456569e+02 2.90024118e+00 1.23650031e+01 -1.74862904e+00 -6.44172611e-02 -1.06981675e-01
121              8.11459057e+02 2.98864982e+00 1.30792308e+01 8.13182605e+02 3.06050106e+00 1.31929450e+01 -1.72354731e+00 -7.18512429e-02 -1.13714200e-01
122              8.29509965e+02 3.01050550e+00 1.40205189e+01 8.31212129e+02 3.08654212e+00 1.41413291e+01 -1.70216474e+00 -7.60366161e-02 -1.20810245e-01
123              8.47759931e+02 2.95940068e+00 1.50420147e+01 8.49441440e+02 3.03862523e+00 1.51711995e+01 -1.68150916e+00 -7.92245548e-02 -1.29184827e-01
124              8.66105313e+02 2.84678876e+00 1.60701931e+01 8.67765602e+02 2.93094341e+00 1.62123409e+01 -1.66028896e+00 -8.41546538e-02 -1.42147841e-01
125              8.84422520e+02 2.69029737e+00 1.70880561e+01 8.86062978e+02 2.77930679e+00 1.72425028e+01 -1.64045763e+00 -8.90094273e-02 -1.54446690e-01
126              9.02608565e+02 2.54995935e+00 1.81037994e+01 9.04231573e+02 2.64127810e+00 1.82683242e+01 -1.62300857e+00 -9.13187500e-02 -1.64524784e-01
127              9.20484520e+02 2.41074749e+00 1.91265445e+01 9.22094025e+02 2.50090866e+00 1.92990570e+01 -1.60950496e+00 -9.01611707e-02 -1.72512566e-01
128              9.37888589e+02 2.35532436e+00 2.01369485e+01 9.39487268e+02 2.44238360e+00 2.03170298e+01 -1.59867941e+00 -8.70592321e-02 -1.80081231e-01
129              9.54789221e+02 2.45438599e+00 2.10626369e+01 9.56376120e+02 2.53821316e+00 2.12498788e+01 -1.58689968e+00 -8.38271692e-02 -1.87241979e-01
130              9.71041488e+02 2.77531053e+00 2.18284806e+01 9.72618879e+02 2.85516237e+00 2.20209227e+01 -1.57739111e+00 -7.98518398e-02 -1.92442123e-01
131              9.86360415e+02 3.30057109e+00 2.23742725e+01 9.87925794e+02 3.37624307e+00 2.25696487e+01 -1.56537967e+00 -7.56719798e-02 -1.95376164e-01
132              1.00051649e+03 3.98164646e+00 2.27043893e+01 1.00207049e+03 4.05273857e+00 2.29019623e+01 -1.55400742e+00 -7.10921072e-02 -1.97573008e-01
133              1.01311896e+03 4.71676783e+00 2.28005492e+01 1.01466161e+03 4.78460324e+00 2.29990569e+01 -1.54264760e+00 -6.78354071e-02 -1.98507700e-01
134              1.02376431e+03 5.41027881e+00 2.26965704e+01 1.02529665e+03 5.47612572e+00 2.28978327e+01 -1.53233972e+00 -6.58469016e-02 -2.01262248e-01
135              1.03212604e+03 5.94666469e+00 2.24294178e+01 1.03364616e+03 6.01377085e+00 2.26310792e+01 -1.52012054e+00 -6.71061638e-02 -2.01661424e-01
136              1.03789967e+03 6.19888726e+00 2.19546580e+01 1.03940888e+03 6.26769772e+00 2.21563824e+01 -1.50921483e+00 -6.88104599e-02 -2.01724448e-01
137              1.04092505e+03 6.15571030e+00 2.13462146e+01 1.04242168e+03 6.22794306e+00 2.15464995e+01 -1.49662973e+00 -7.22327631e-02 -2.00284856e-01
138              1.04100104e+03 5.78488974e+00 2.07405658e+01 1.04248864e+03 5.86331891e+00 2.09378433e+01 -1.48760438e+00 -7.84291735e-02 -1.97277492e-01
139              1.03795160e+03 5.10062019e+00 2.02553741e+01 1.03943305e+03 5.18889262e+00 2.04493971e+01 -1.48144776e+00 -8.82724294e-02 -1.94023018e-01
140              1.03174280e+03 4.10908920e+00 1.98979290e+01 1.03322178e+03 4.20799220e+00 2.00859533e+01 -1.47897882e+00 -9.89030011e-02 -1.88024227e-01
141              1.02251145e+03 2.82757068e+00 1.96862947e+01 1.02398820e+03 2.93837046e+00 1.98658368e+01 -1.47675210e+00 -1.10799777e-01 -1.79542053e-01
142              1.01053707e+03 1.26200832e+00 1.95818371e+01 1.01201639e+03 1.38817356e+00 1.97535215e+01 -1.47932099e+00 -1.26165238e-01 -1.71684473e-01
143              9.96096371e+02 -5.75094431e-01 1.95036178e+01 9.97578973e+02 -4.32808155e-01 1.96693000e+01 -1.48260190e+00 -1.42286276e-01 -1.65682236e-01
144              9.79578267e+02 -2.63612489e+00 1.94232536e+01 9.81064557e+02 -2.47602085e+00 1.95806656e+01 -1.48628992e+00 -1.60104040e-01 -1.57412089e-01
145              9.61477492e+02 -4.83926652e+00 1.93546749e+01 9.62966885e+02 -4.66110330e+00 1.95026472e+01 -1.48939228e+00 -1.78163226e-01 -1.47972355e-01
146              9.42152628e+02 -7.14105610e+00 1.93202324e+01 9.43647315e+02 -6.94591619e+00 1.94591112e+01 -1.49468706e+00 -1.95139904e-01 -1.38878756e-01
147              9.22141171e+02 -9.43801893e+00 1.93377135e+01 9.23643345e+02 -9.22928935e+00 1.94670491e+01 -1.50217401e+00 -2.08729580e-01 -1.29335624e-01
148              9.02038142e+02 -1.16505732e+01 1.93854656e+01 9.03549859e+02 -1.14299035e+01 1.95040311e+01 -1.51171625e+00 -2.20669705e-01 -1.18565490e-01
149              8.82258421e+02 -1.37270039e+01 1.93681944e+01 8.83783788e+02 -1.34944912e+01 1.94747305e+01 -1.52536684e+00 -2.32512672e-01 -1.06536113e-01
150              8.63273528e+02 -1.56521675e+01 1.91888914e+01 8.64815821e+02 -1.54123877e+01 1.92867932e+01 -1.54229358e+00 -2.39779846e-01 -9.79018023e-02
151              8.45321342e+02 -1.74495929e+01 1.87765303e+01 8.46882369e+02 -1.72047610e+01 1.88686211e+01 -1.56102754e+00 -2.44831844e-01 -9.20907585e-02
152              8.28521656e+02 -1.90257326e+01 1.80630071e+01 8.30104378e+02 -1.87763295e+01 1.81521738e+01 -1.58272202e+00 -2.49403146e-01 -8.91666519e-02
153              8.12958032e+02 -2.03164831e+01 1.70333763e+01 8.14565835e+02 -2.00613396e+01 1.71217109e+01 -1.60780274e+00 -2.55143462e-01 -8.83346076e-02
154              7.98594302e+02 -2.12614888e+01 1.57687229e+01 8.00227143e+02 -2.09995808e+01 1.58585125e+01 -1.63284184e+00 -2.61907989e-01 -8.97895269e-02
155              7.85348002e+02 -2.18798771e+01 1.43802638e+01 7.87009468e+02 -2.16115816e+01 1.44744788e+01 -1.66146621e+00 -2.68295539e-01 -9.42149877e-02
156              7.73036167e+02 -2.22095303e+01 1.29906822e+01 7.74727281e+02 -2.19348754e+01 1.30906451e+01 -1.69111384e+00 -2.74654857e-01 -9.99629359e-02
157              7.61491593e+02 -2.23328380e+01 1.16419796e+01 7.63212825e+02 -2.20510214e+01 1.17490505e+01 -1.72123211e+00 -2.81816603e-01 -1.07070885e-01
158              7.50625550e+02 -2.22887804e+01 1.03315528e+01 7.52381079e+02 -2.19992610e+01 1.04477298e+01 -1.75552870e+00 -2.89519414e-01 -1.16177087e-01
159              7.40392454e+02 -2.21778640e+01 9.09364828e+00 7.42186467e+02 -2.18791785e+01 9.22099493e+00 -1.79401281e+00 -2.98685513e-01 -1.27346649e-01
160              7.30745077e+02 -2.20823514e+01 7.99349962e+00 7.32581927e+02 -2.17738091e+01 8.13226149e+00 -1.83685070e+00 -3.08542267e-01 -1.38761868e-01
161              7.21651594e+02 -2.20489187e+01 7.09958765e+00 7.23534226e+02 -2.17290938e+01 7.25067265e+00 -1.88263216e+00 -3.19824855e-01 -1.51084998e-01
162              7.13060856e+02 -2.21516432e+01 6.38548196e+00 7.14990941e+02 -2.18210565e+01 6.55066737e+00 -1.93008446e+00 -3.30586686e-01 -1.65185411e-01
163              7.04972499e+02 -2.23578103e+01 5.82011548e+00 7.06949639e+02 -2.20176577e+01 5.99989503e+00 -1.97714020e+00 -3.40152573e-01 -1.79779550e-01
164              6.97388595e+02 -2.26763405e+01 5.32687142e+00 6.99410363e+02 -2.23253521e+01 5.52147465e+00 -2.02176746e+00 -3.50988388e-01 -1.94603227e-01
165              6.90260604e+02 -2.30979019e+01 4.85779844e+00 6.92326891e+02 -2.27372735e+01 5.06986166e+00 -2.06628662e+00 -3.60628411e-01 -2.12063221e-01
166              6.83496107e+02 -2.36225458e+01 4.37155055e+00 6.85605112e+02 -2.32551730e+01 4.60029561e+00 -2.10900437e+00 -3.67372844e-01 -2.28745064e-01
167              6.77061260e+02 -2.42547586e+01 3.86165942e+00 6.79211605e+02 -2.38821585e+01 4.10672655e+00 -2.15034481e+00 -3.72600132e-01 -2.45067133e-01
168              6.70921370e+02 -2.50271741e+01 3.37019182e+00 6.73110002e+02 -2.46507187e+01 3.63253253e+00 -2.18863204e+00 -3.76455386e-01 -2.62340712e-01
169              6.65072702e+02 -2.59262435e+01 2.86408129e+00 6.67295739e+02 -2.55485377e+01 3.14269839e+00 -2.22303774e+00 -3.77705801e-01 -2.78617099e-01
170              6.59641435e+02 -2.68838489e+01 2.22311573e+00 6.61894815e+02 -2.65075587e+01 2.51925437e+00 -2.25338026e+00 -3.76290262e-01 -2.96138639e-01
171              6.54761799e+02 -2.78110844e+01 1.45326305e+00 6.57042092e+02 -2.74390167e+01 1.76761069e+00 -2.28029290e+00 -3.72067740e-01 -3.14347640e-01
172              6.50553161e+02 -2.86098659e+01 5.74394229e-01 6.52857777e+02 -2.82430529e+01 9.07227500e-01 -2.30461599e+00 -3.66812989e-01 -3.32833271e-01
173              6.47054691e+02 -2.91952784e+01 -4.39378010e-01 6.49379744e+02 -2.88354967e+01 -8.79242667e-02 -2.32505280e+00 -3.59781711e-01 -3.51453743e-01
174              6.44215191e+02 -2.95429777e+01 -1.57641772e+00 6.46557890e+02 -2.91915776e+01 -1.20648074e+00 -2.34269832e+00 -3.51400145e-01 -3.69936982e-01
175              6.41994824e+02 -2.96511539e+01 -2.74685919e+00 6.44354311e+02 -2.93087539e+01 -2.35985220e+00 -2.35948726e+00 -3.42400000e-01 -3.87006989e-01
176              6.40320124e+02 -2.95761698e+01 -3.84808425e+00 6.42697869e+02 -2.92430872e+01 -3.44599322e+00 -2.37774515e+00 -3.33082610e-01 -4.02091031e-01
177              6.39261407e+02 -2.92626779e+01 -4.71348804e+00 6.41655248e+02 -2.89390450e+01 -4.29761748e+00 -2.39384060e+00 -3.23632837e-01 -4.15870565e-01
178              6.38728059e+02 -2.87175862e+01 -5.20442158e+00 6.41141818e+02 -2.84019130e+01 -4.77599380e+00 -2.41375895e+00 -3.15673263e-01 -4.28427775e-01
179              6.38644727e+02 -2.79411186e+01 -5.20404499e+00 6.41078015e+02 -2.76312960e+01 -4.76285192e+00 -2.43328784e+00 -3.09822633e-01 -4.41193073e-01
180              6.38836129e+02 -2.70271686e+01 -4.63764028e+00 6.41284678e+02 -2.67221909e+01 -4.18358680e+00 -2.44854870e+00 -3.04977684e-01 -4.54053472e-01
181              6.39183370e+02 -2.60756933e+01 -3.56381634e+00 6.41644749e+02 -2.57735886e+01 -3.09555191e+00 -2.46137931e+00 -3.02104723e-01 -4.68264434e-01
182              6.39674724e+02 -2.52175686e+01 -2.07578005e+00 6.42146026e+02 -2.49184118e+01 -1.59268562e+00 -2.47130175e+00 -2.99156823e-01 -4.83094431e-01
183              6.40310493e+02 -2.45880106e+01 -3.39318251e-01 6.42792566e+02 -2.42904989e+01 1.60055826e-01 -2.48207297e+00 -2.97511649e-01 -4.99374077e-01
184              6.41158657e+02 -2.42752243e+01 1.51670972e+00 6.43652283e+02 -2.39802423e+01 2.03251021e+00 -2.49362685e+00 -2.94982015e-01 -5.15800493e-01
185              6.42181921e+02 -2.43082709e+01 3.26360815e+00 6.44683887e+02 -2.40115773e+01 3.79423971e+00 -2.50196529e+00 -2.96693574e-01 -5.30631563e-01
186              6.43238728e+02 -2.47336477e+01 4.74649246e+00 6.45745331e+02 -2.44323513e+01 5.29198404e+00 -2.50660334e+00 -3.01296422e-01 -5.45491583e-01
187              6.44228477e+02 -2.55458553e+01 5.90958769e+00 6.46736430e+02 -2.52380143e+01 6.46786255e+00 -2.50795313e+00 -3.07840981e-01 -5.58274861e-01
188              6.44933395e+02 -2.66771472e+01 6.68843235e+00 6.47440874e+02 -2.63620560e+01 7.25951541e+00 -2.50747836e+00 -3.15091177e-01 -5.71083065e-01
189              6.45208489e+02 -2.79916433e+01 6.98806650e+00 6.47713290e+02 -2.76693888e+01 7.56925048e+00 -2.50480113e+00 -3.22254484e-01 -5.81183978e-01
190              6.44926146e+02 -2.93343296e+01 6.75835388e+00 6.47426551e+02 -2.90062045e+01 7.34758342e+00 -2.50040452e+00 -3.28125039e-01 -5.89229537e-01
191              6.43978548e+02 -3.05844335e+01 5.96801861e+00 6.46475848e+02 -3.02505717e+01 6.56415693e+00 -2.49730067e+00 -3.33861781e-01 -5.96138321e-01