# Moment        
# CofR          : (0.00000000e+00 0.00000000e+00 0.00000000e+00)
#
# Time          	total_x total_y total_z	pressure_x pressure_y pressure_z	viscous_x viscous_y viscous_z
1                -1.45607996e+01 2.44724232e-01 4.03085806e-02 -1.29697214e+01 1.88754333e-01 2.99974377e-02 -1.59107820e+00 5.59698989e-02 1.03111428e-02
2                -4.04518904e+01 3.45148794e-01 5.79352590e-01 -3.90718893e+01 3.17960028e-01 5.66607957e-01 -1.38000108e+00 2.71887659e-02 1.27446331e-02
3                -6.41804694e+01 6.30043403e-01 8.16690234e-01 -6.30497459e+01 6.15586786e-01 8.14266256e-01 -1.13072353e+00 1.44566170e-02 2.42397759e-03
4                -7.89250239e+01 1.02338285e+00 7.47915621e-01 -7.80124305e+01 1.01653120e+00 7.51191383e-01 -9.12593412e-01 6.85165061e-03 -3.27576183e-03
5                -8.31712434e+01 1.40650180e+00 4.37867337e-01 -8.24321678e+01 1.40479626e+00 4.42956914e-01 -7.39075574e-01 1.70554498e-03 -5.08957734e-03
6                -7.87473614e+01 1.67840080e+00 3.84826382e-02 -7.81432441e+01 1.67834994e+00 4.45364405e-02 -6.04117308e-01 5.08577797e-05 -6.05380229e-03
7                -6.93678481e+01 1.78022041e+00 -3.42750819e-01 -6.88692891e+01 1.78098630e+00 -3.35732844e-01 -4.98558988e-01 -7.65891993e-04 -7.01797515e-03
8                -5.88967842e+01 1.70545369e+00 -6.38969327e-01 -5.84738699e+01 1.70843344e+00 -6.30224669e-01 -4.22914374e-01 -2.97974948e-03 -8.74465806e-03
9                -5.02580556e+01 1.53631805e+00 -7.52256093e-01 -4.98708383e+01 1.53998705e+00 -7.42282770e-01 -3.87217341e-01 -3.66899900e-03 -9.97332280e-03
10               -4.49447027e+01 1.35705473e+00 -6.73423964e-01 -4.45606839e+01 1.36012191e+00 -6.65209069e-01 -3.84018767e-01 -3.06718087e-03 -8.21489505e-03
11               -4.29865707e+01 1.21410172e+00 -4.89497562e-01 -4.25892162e+01 1.21664345e+00 -4.83695192e-01 -3.97354555e-01 -2.54172690e-03 -5.80237005e-03
12               -4.34694441e+01 1.13798235e+00 -2.96654477e-01 -4.30546651e+01 1.13964407e+00 -2.92122779e-01 -4.14778977e-01 -1.66172474e-03 -4.53169821e-03
13               -4.51838576e+01 1.15090211e+00 -1.60020915e-01 -4.47538116e+01 1.15137406e+00 -1.55200558e-01 -4.30045975e-01 -4.71952036e-04 -4.82035613e-03
14               -4.71108432e+01 1.23149986e+00 -8.69939167e-02 -4.66705164e+01 1.23020750e+00 -8.15701805e-02 -4.40326852e-01 1.29236839e-03 -5.42373611e-03
15               -4.85727001e+01 1.33189577e+00 -4.93982707e-02 -4.81262834e+01 1.32843238e+00 -4.24141204e-02 -4.46416714e-01 3.46339136e-03 -6.98415039e-03
16               -4.92707059e+01 1.39292115e+00 9.76114686e-03 -4.88207961e+01 1.38745008e+00 1.83986707e-02 -4.49909790e-01 5.47107671e-03 -8.63752385e-03
17               -4.91965614e+01 1.41873180e+00 8.89367608e-02 -4.87442037e+01 1.41221085e+00 9.91253962e-02 -4.52357722e-01 6.52095108e-03 -1.01886354e-02
18               -4.85215888e+01 1.42313273e+00 1.99973005e-01 -4.80661210e+01 1.41561203e+00 2.11088926e-01 -4.55467772e-01 7.52070350e-03 -1.11159208e-02
19               -4.74895701e+01 1.42151930e+00 3.29058065e-01 -4.70297608e+01 1.41337659e+00 3.40667339e-01 -4.59809240e-01 8.14271890e-03 -1.16092740e-02
20               -4.63169593e+01 1.44673684e+00 4.56979436e-01 -4.58514560e+01 1.43832412e+00 4.69213706e-01 -4.65503359e-01 8.41271442e-03 -1.22342698e-02
21               -4.51651522e+01 1.51336480e+00 5.62957118e-01 -4.46932855e+01 1.50537196e+00 5.75175182e-01 -4.71866744e-01 7.99283178e-03 -1.22180637e-02
22               -4.41126628e+01 1.60817564e+00 6.35594076e-01 -4.36337550e+01 1.60056999e+00 6.47251667e-01 -4.78907855e-01 7.60564969e-03 -1.16575913e-02
23               -4.31630992e+01 1.71188031e+00 6.77957306e-01 -4.26762258e+01 1.70478912e+00 6.89084694e-01 -4.86873365e-01 7.09119351e-03 -1.11273883e-02
24               -4.22763498e+01 1.80378009e+00 6.87721399e-01 -4.17813300e+01 1.79730165e+00 6.98250783e-01 -4.95019808e-01 6.47843614e-03 -1.05293845e-02
25               -4.14049784e+01 1.87508229e+00 6.67565809e-01 -4.09015998e+01 1.86926673e+00 6.77617219e-01 -5.03378606e-01 5.81556046e-03 -1.00514093e-02
26               -4.05021473e+01 1.92568722e+00 6.23233195e-01 -3.99904526e+01 1.92065110e+00 6.32913224e-01 -5.11694681e-01 5.03611132e-03 -9.68002843e-03
27               -3.95549728e+01 1.95990815e+00 5.68441101e-01 -3.90353511e+01 1.95551619e+00 5.77620507e-01 -5.19621747e-01 4.39195998e-03 -9.17940597e-03
28               -3.85752397e+01 1.99085440e+00 5.11285663e-01 -3.80476739e+01 1.98716611e+00 5.20336271e-01 -5.27565768e-01 3.68829499e-03 -9.05060779e-03
29               -3.75827728e+01 2.03199102e+00 4.51101509e-01 -3.70471351e+01 2.02937013e+00 4.59968896e-01 -5.35637676e-01 2.62088654e-03 -8.86738614e-03
30               -3.66004506e+01 2.08508495e+00 3.93210364e-01 -3.60568673e+01 2.08376431e+00 4.01906393e-01 -5.43583239e-01 1.32063958e-03 -8.69602902e-03
31               -3.56497692e+01 2.14202793e+00 3.44826485e-01 -3.50986653e+01 2.14214197e+00 3.53332511e-01 -5.51103840e-01 -1.14037519e-04 -8.50602620e-03
32               -3.47400752e+01 2.19570063e+00 3.10187937e-01 -3.41818575e+01 2.19735707e+00 3.18328811e-01 -5.58217674e-01 -1.65643977e-03 -8.14087424e-03
33               -3.38888123e+01 2.23274554e+00 2.94524341e-01 -3.33239259e+01 2.23595063e+00 3.02415311e-01 -5.64886367e-01 -3.20509777e-03 -7.89096919e-03
34               -3.31072922e+01 2.24341007e+00 3.00955575e-01 -3.25363497e+01 2.24802467e+00 3.08357561e-01 -5.70942441e-01 -4.61459204e-03 -7.40198666e-03
35               -3.24006926e+01 2.23789836e+00 3.31016778e-01 -3.18243734e+01 2.24375374e+00 3.37707090e-01 -5.76319155e-01 -5.85537626e-03 -6.69031173e-03
36               -3.17748850e+01 2.21800756e+00 3.82561606e-01 -3.11937259e+01 2.22472102e+00 3.88337347e-01 -5.81159068e-01 -6.71345704e-03 -5.77574101e-03
37               -3.12338389e+01 2.18396831e+00 4.47160143e-01 -3.06482494e+01 2.19147673e+00 4.52170250e-01 -5.85589467e-01 -7.50842609e-03 -5.01010680e-03
38               -3.07748380e+01 2.12940566e+00 5.16759888e-01 -3.01851746e+01 2.13756345e+00 5.20916727e-01 -5.89663372e-01 -8.15779442e-03 -4.15683886e-03
39               -3.03870765e+01 2.05657645e+00 5.84220749e-01 -2.97937807e+01 2.06522679e+00 5.87324611e-01 -5.93295798e-01 -8.65034453e-03 -3.10386124e-03
40               -3.00586456e+01 1.96906637e+00 6.42072583e-01 -2.94620195e+01 1.97812534e+00 6.43957707e-01 -5.96626142e-01 -9.05896942e-03 -1.88512458e-03
41               -2.97779193e+01 1.87594344e+00 6.87998062e-01 -2.91785140e+01 1.88540727e+00 6.88640701e-01 -5.99405369e-01 -9.46383158e-03 -6.42639054e-04
42               -2.95341616e+01 1.78676152e+00 7.18540491e-01 -2.89322469e+01 1.79659899e+00 7.17805366e-01 -6.01914749e-01 -9.83747654e-03 7.35125219e-04
43               -2.93187906e+01 1.72124684e+00 7.36943070e-01 -2.87144626e+01 1.73136216e+00 7.34901736e-01 -6.04327959e-01 -1.01153210e-02 2.04133436e-03
44               -2.91354177e+01 1.68733646e+00 7.46479459e-01 -2.85288113e+01 1.69764201e+00 7.43392814e-01 -6.06606377e-01 -1.03055454e-02 3.08664474e-03
45               -2.89820521e+01 1.68087100e+00 7.59943733e-01 -2.83731527e+01 1.69134589e+00 7.55878989e-01 -6.08899419e-01 -1.04748907e-02 4.06474372e-03
46               -2.88591249e+01 1.69522442e+00 7.84745445e-01 -2.82480904e+01 1.70568348e+00 7.79874733e-01 -6.11034523e-01 -1.04590622e-02 4.87071214e-03
47               -2.87651093e+01 1.72950638e+00 8.21418523e-01 -2.81521639e+01 1.73988725e+00 8.15931685e-01 -6.12945426e-01 -1.03808739e-02 5.48683788e-03
48               -2.86998661e+01 1.78007702e+00 8.70093102e-01 -2.80850263e+01 1.79027457e+00 8.63973055e-01 -6.14839711e-01 -1.01975469e-02 6.12004707e-03
49               -2.86664240e+01 1.84123571e+00 9.25688940e-01 -2.80497353e+01 1.85125242e+00 9.18965044e-01 -6.16688783e-01 -1.00167061e-02 6.72389641e-03
50               -2.86680843e+01 1.90641950e+00 9.78313622e-01 -2.80495175e+01 1.91609983e+00 9.71065221e-01 -6.18566796e-01 -9.68033189e-03 7.24840085e-03
51               -2.87111148e+01 1.97128832e+00 1.02383942e+00 -2.80906711e+01 1.98051260e+00 1.01615756e+00 -6.20443635e-01 -9.22427640e-03 7.68186106e-03
52               -2.87972042e+01 2.03473084e+00 1.06239141e+00 -2.81749648e+01 2.04353446e+00 1.05436956e+00 -6.22239342e-01 -8.80362118e-03 8.02184637e-03
53               -2.89229734e+01 2.09242300e+00 1.08932405e+00 -2.82990172e+01 2.10067885e+00 1.08097141e+00 -6.23956149e-01 -8.25584902e-03 8.35263988e-03
54               -2.90841800e+01 2.14160969e+00 1.10184302e+00 -2.84586617e+01 2.14914311e+00 1.09309773e+00 -6.25518312e-01 -7.53342124e-03 8.74529205e-03
55               -2.92667983e+01 2.18543772e+00 1.09971576e+00 -2.86397898e+01 2.19228934e+00 1.09052822e+00 -6.27008465e-01 -6.85162000e-03 9.18754238e-03
56               -2.94660880e+01 2.22183577e+00 1.08505280e+00 -2.88376668e+01 2.22810867e+00 1.07549812e+00 -6.28421186e-01 -6.27290328e-03 9.55468027e-03
57               -2.96689771e+01 2.24731609e+00 1.05825501e+00 -2.90391378e+01 2.25315258e+00 1.04851026e+00 -6.29839273e-01 -5.83648440e-03 9.74474862e-03
58               -2.98690963e+01 2.26427331e+00 1.01828693e+00 -2.92378706e+01 2.26968846e+00 1.00840538e+00 -6.31225773e-01 -5.41514818e-03 9.88154651e-03
59               -3.00606236e+01 2.27608494e+00 9.66533444e-01 -2.94280202e+01 2.28107112e+00 9.56592871e-01 -6.32603402e-01 -4.98618036e-03 9.94057363e-03
60               -3.02449914e+01 2.28395739e+00 9.04773759e-01 -2.96110202e+01 2.28867570e+00 8.94810965e-01 -6.33971245e-01 -4.71830111e-03 9.96279425e-03
61               -3.04211412e+01 2.28847949e+00 8.36173022e-01 -2.97857067e+01 2.29311546e+00 8.26295479e-01 -6.35434506e-01 -4.63596988e-03 9.87754309e-03
62               -3.05864756e+01 2.29032662e+00 7.62916005e-01 -2.99495070e+01 2.29502655e+00 7.53200841e-01 -6.36968581e-01 -4.69993291e-03 9.71516414e-03
63               -3.07396138e+01 2.28958182e+00 6.86406825e-01 -3.01009366e+01 2.29438046e+00 6.76855031e-01 -6.38677124e-01 -4.79863676e-03 9.55179340e-03
64               -3.08808564e+01 2.28775444e+00 6.06336524e-01 -3.02404001e+01 2.29273822e+00 5.97057056e-01 -6.40456357e-01 -4.98378041e-03 9.27946791e-03
65               -3.10090659e+01 2.28624368e+00 5.21644044e-01 -3.03667985e+01 2.29147330e+00 5.12755816e-01 -6.42267442e-01 -5.22961642e-03 8.88822795e-03
66               -3.11220611e+01 2.28545503e+00 4.30313154e-01 -3.04778684e+01 2.29093523e+00 4.21856452e-01 -6.44192685e-01 -5.48019643e-03 8.45670264e-03
67               -3.12174485e+01 2.28393279e+00 3.29772107e-01 -3.05713559e+01 2.28970374e+00 3.21712385e-01 -6.46092687e-01 -5.77095872e-03 8.05972213e-03
68               -3.12938768e+01 2.28043937e+00 2.19892620e-01 -3.06459019e+01 2.28652071e+00 2.12185171e-01 -6.47974964e-01 -6.08134433e-03 7.70744926e-03
69               -3.13516295e+01 2.27546223e+00 1.04255528e-01 -3.07018279e+01 2.28188208e+00 9.68159154e-02 -6.49801603e-01 -6.41985044e-03 7.43961253e-03
70               -3.13892711e+01 2.26807606e+00 -1.38418838e-02 -3.07377365e+01 2.27478802e+00 -2.09769965e-02 -6.51534586e-01 -6.71195864e-03 7.13511268e-03
71               -3.14065770e+01 2.25826688e+00 -1.31901292e-01 -3.07533789e+01 2.26520126e+00 -1.38786029e-01 -6.53198084e-01 -6.93437746e-03 6.88473696e-03
72               -3.14021731e+01 2.24402964e+00 -2.46966879e-01 -3.07474030e+01 2.25116384e+00 -2.53643554e-01 -6.54770024e-01 -7.13420036e-03 6.67667431e-03
73               -3.13778381e+01 2.22378631e+00 -3.58375213e-01 -3.07215696e+01 2.23110144e+00 -3.64885819e-01 -6.56268462e-01 -7.31513161e-03 6.51060667e-03
74               -3.13335974e+01 2.19668703e+00 -4.62574004e-01 -3.06759542e+01 2.20409656e+00 -4.69007227e-01 -6.57643211e-01 -7.40952838e-03 6.43322227e-03
75               -3.12698475e+01 2.16222518e+00 -5.56779959e-01 -3.06109571e+01 2.16970089e+00 -5.63078524e-01 -6.58890337e-01 -7.47571472e-03 6.29856494e-03
76               -3.11863534e+01 2.11965227e+00 -6.39634502e-01 -3.05263731e+01 2.12717293e+00 -6.45794888e-01 -6.59980355e-01 -7.52066599e-03 6.16038630e-03
77               -3.10837081e+01 2.06895603e+00 -7.07989499e-01 -3.04228069e+01 2.07653602e+00 -7.13876968e-01 -6.60901203e-01 -7.57999069e-03 5.88746914e-03
78               -3.09639353e+01 2.01106650e+00 -7.60151270e-01 -3.03022703e+01 2.01867944e+00 -7.65692001e-01 -6.61664976e-01 -7.61293799e-03 5.54073165e-03
79               -3.08294030e+01 1.94846569e+00 -7.93394482e-01 -3.01671123e+01 1.95613667e+00 -7.98529471e-01 -6.62290702e-01 -7.67097955e-03 5.13498929e-03
80               -3.06821621e+01 1.88586494e+00 -8.06881140e-01 -3.00193794e+01 1.89360379e+00 -8.11606387e-01 -6.62782703e-01 -7.73884761e-03 4.72524731e-03
81               -3.05240051e+01 1.82644576e+00 -8.02630752e-01 -2.98608569e+01 1.83425088e+00 -8.06905916e-01 -6.63148222e-01 -7.80511954e-03 4.27516330e-03
82               -3.03591639e+01 1.77168836e+00 -7.83324539e-01 -2.96956819e+01 1.77949997e+00 -7.87139739e-01 -6.63482004e-01 -7.81160647e-03 3.81519988e-03
83               -3.01920754e+01 1.72429256e+00 -7.53305445e-01 -2.95283367e+01 1.73204483e+00 -7.56615262e-01 -6.63738735e-01 -7.75226238e-03 3.30981791e-03
84               -3.00252224e+01 1.68547489e+00 -7.18552183e-01 -2.93612469e+01 1.69311093e+00 -7.21290325e-01 -6.63975555e-01 -7.63603437e-03 2.73814274e-03
85               -2.98624235e+01 1.65622476e+00 -6.83644370e-01 -2.91982416e+01 1.66363123e+00 -6.85704949e-01 -6.64181901e-01 -7.40646191e-03 2.06057882e-03
86               -2.97080801e+01 1.63419303e+00 -6.50312925e-01 -2.90437411e+01 1.64128934e+00 -6.51631299e-01 -6.64339025e-01 -7.09631374e-03 1.31837393e-03
87               -2.95657547e+01 1.61785927e+00 -6.19851589e-01 -2.89013925e+01 1.62462676e+00 -6.20403817e-01 -6.64362164e-01 -6.76748927e-03 5.52228371e-04
88               -2.94366823e+01 1.60280110e+00 -5.93790006e-01 -2.87723352e+01 1.60915444e+00 -5.93602327e-01 -6.64347102e-01 -6.35334299e-03 -1.87679170e-04
89               -2.93237283e+01 1.58763659e+00 -5.71822787e-01 -2.86595958e+01 1.59357221e+00 -5.70923889e-01 -6.64132433e-01 -5.93561654e-03 -8.98897847e-04
90               -2.92288168e+01 1.57082609e+00 -5.52361474e-01 -2.85650049e+01 1.57628495e+00 -5.50883329e-01 -6.63811824e-01 -5.45885558e-03 -1.47814432e-03
91               -2.91547963e+01 1.55088576e+00 -5.33639707e-01 -2.84914934e+01 1.55579757e+00 -5.31499171e-01 -6.63302893e-01 -4.91180988e-03 -2.14053595e-03
92               -2.91060269e+01 1.52880250e+00 -5.14427209e-01 -2.84433125e+01 1.53310010e+00 -5.11632433e-01 -6.62714422e-01 -4.29760409e-03 -2.79477623e-03
93               -2.90854929e+01 1.50404511e+00 -4.92305762e-01 -2.84235484e+01 1.50762259e+00 -4.88931556e-01 -6.61944516e-01 -3.57748233e-03 -3.37420648e-03
94               -2.90947785e+01 1.47707057e+00 -4.68242957e-01 -2.84338053e+01 1.47976337e+00 -4.64302150e-01 -6.60973197e-01 -2.69279973e-03 -3.94080694e-03
95               -2.91375078e+01 1.44837443e+00 -4.41441368e-01 -2.84776783e+01 1.45013186e+00 -4.36901966e-01 -6.59829535e-01 -1.75742778e-03 -4.53940162e-03
96               -2.92132543e+01 1.41645419e+00 -4.12322578e-01 -2.85548197e+01 1.41717941e+00 -4.07180693e-01 -6.58434550e-01 -7.25218540e-04 -5.14188452e-03
97               -2.93223935e+01 1.38021210e+00 -3.80207391e-01 -2.86656166e+01 1.37981270e+00 -3.74489922e-01 -6.56776839e-01 3.99405499e-04 -5.71746941e-03
98               -2.94646079e+01 1.33762141e+00 -3.42208658e-01 -2.88097620e+01 1.33610286e+00 -3.35966018e-01 -6.54845896e-01 1.51854915e-03 -6.24264036e-03
99               -2.96398061e+01 1.28596263e+00 -2.97994520e-01 -2.89871851e+01 1.28329871e+00 -2.91207632e-01 -6.52620945e-01 2.66391971e-03 -6.78688805e-03
100              -2.98462721e+01 1.22310870e+00 -2.46886872e-01 -2.91962464e+01 1.21929954e+00 -2.39668143e-01 -6.50025794e-01 3.80916087e-03 -7.21872834e-03
101              -3.00853084e+01 1.14992650e+00 -1.91016666e-01 -2.94383878e+01 1.14501622e+00 -1.83403314e-01 -6.46920564e-01 4.91028054e-03 -7.61335162e-03
102              -3.03600627e+01 1.06848584e+00 -1.29989810e-01 -2.97167941e+01 1.06252156e+00 -1.22139306e-01 -6.43268536e-01 5.96427515e-03 -7.85050360e-03
103              -3.06718259e+01 9.85307455e-01 -6.48893744e-02 -3.00326903e+01 9.78475717e-01 -5.69616729e-02 -6.39135617e-01 6.83173847e-03 -7.92770145e-03
104              -3.10233634e+01 9.03271150e-01 4.63638843e-03 -3.03888270e+01 8.95687749e-01 1.25712971e-02 -6.34536459e-01 7.58340152e-03 -7.93490868e-03
105              -3.14148034e+01 8.29919085e-01 8.03677567e-02 -3.07853084e+01 8.21699345e-01 8.82357798e-02 -6.29494987e-01 8.21974026e-03 -7.86802304e-03
106              -3.18468198e+01 7.67319300e-01 1.63924956e-01 -3.12229142e+01 7.58525379e-01 1.71702291e-01 -6.23905608e-01 8.79392094e-03 -7.77733457e-03
107              -3.23185881e+01 7.14831815e-01 2.52660218e-01 -3.17006392e+01 7.05668388e-01 2.60178166e-01 -6.17948915e-01 9.16342715e-03 -7.51794789e-03
108              -3.28308844e+01 6.70317885e-01 3.44411135e-01 -3.22193625e+01 6.60913811e-01 3.51496813e-01 -6.11521881e-01 9.40407413e-03 -7.08567779e-03
109              -3.33837110e+01 6.30667140e-01 4.38456954e-01 -3.27791718e+01 6.21137040e-01 4.45020065e-01 -6.04539291e-01 9.53010074e-03 -6.56311187e-03
110              -3.39804323e+01 5.95264648e-01 5.30767503e-01 -3.33833229e+01 5.85742028e-01 5.36780334e-01 -5.97109422e-01 9.52262058e-03 -6.01283041e-03
111              -3.46242909e+01 5.62794578e-01 6.20431230e-01 -3.40350799e+01 5.53427776e-01 6.25837999e-01 -5.89211011e-01 9.36680191e-03 -5.40676939e-03
112              -3.53176371e+01 5.34307530e-01 7.06109609e-01 -3.47366641e+01 5.25342499e-01 7.10881908e-01 -5.80973011e-01 8.96503094e-03 -4.77229918e-03
113              -3.60657616e+01 5.15373942e-01 7.87345478e-01 -3.54932444e+01 5.06933629e-01 7.91521197e-01 -5.72517205e-01 8.44031357e-03 -4.17571898e-03
114              -3.68703267e+01 5.09039244e-01 8.65211260e-01 -3.63063462e+01 5.01269456e-01 8.68824305e-01 -5.63980523e-01 7.76978862e-03 -3.61304516e-03
115              -3.77265469e+01 5.13352298e-01 9.38257202e-01 -3.71709647e+01 5.06331683e-01 9.41404991e-01 -5.55582142e-01 7.02061517e-03 -3.14778888e-03
116              -3.86303396e+01 5.29425077e-01 1.00622074e+00 -3.80829892e+01 5.23125828e-01 1.00903784e+00 -5.47350405e-01 6.29924911e-03 -2.81709736e-03
117              -3.95785308e+01 5.60853347e-01 1.06795569e+00 -3.90396131e+01 5.55313637e-01 1.07048487e+00 -5.38917779e-01 5.53971044e-03 -2.52917704e-03
118              -4.05685051e+01 6.10498064e-01 1.12791341e+00 -4.00375197e+01 6.05357033e-01 1.13027825e+00 -5.30985442e-01 5.14103080e-03 -2.36483805e-03
119              -4.15957939e+01 6.76534624e-01 1.19064032e+00 -4.10722878e+01 6.71586315e-01 1.19319096e+00 -5.23506069e-01 4.94830824e-03 -2.55063700e-03
120              -4.26526734e+01 7.54424845e-01 1.25508797e+00 -4.21366179e+01 7.49302563e-01 1.25774774e+00 -5.16055469e-01 5.12228156e-03 -2.65976634e-03
121              -4.37350352e+01 8.39048458e-01 1.32018865e+00 -4.32263021e+01 8.33634917e-01 1.32278440e+00 -5.08733149e-01 5.41354043e-03 -2.59575828e-03
122              -4.48355876e+01 9.22864272e-01 1.39114423e+00 -4.43339931e+01 9.17040493e-01 1.39357481e+00 -5.01594508e-01 5.82377893e-03 -2.43057362e-03
123              -4.59474302e+01 1.00509869e+00 1.46875157e+00 -4.54527679e+01 9.98885859e-01 1.47104611e+00 -4.94662337e-01 6.21283345e-03 -2.29453521e-03
124              -4.70635798e+01 1.08241988e+00 1.54734611e+00 -4.65756234e+01 1.07597502e+00 1.54970368e+00 -4.87956405e-01 6.44486709e-03 -2.35757577e-03
125              -4.81761599e+01 1.15554889e+00 1.62880510e+00 -4.76948714e+01 1.14907605e+00 1.63124584e+00 -4.81288565e-01 6.47283932e-03 -2.44074034e-03
126              -4.92780043e+01 1.22658195e+00 1.71575019e+00 -4.88033867e+01 1.22016303e+00 1.71824453e+00 -4.74617611e-01 6.41891961e-03 -2.49434611e-03
127              -5.03570479e+01 1.29266296e+00 1.80504579e+00 -4.98892096e+01 1.28638355e+00 1.80766716e+00 -4.67838275e-01 6.27941287e-03 -2.62136509e-03
128              -5.14020002e+01 1.35590469e+00 1.89392876e+00 -5.09409958e+01 1.34986325e+00 1.89666044e+00 -4.61004420e-01 6.04144440e-03 -2.73168093e-03
129              -5.24103190e+01 1.41839826e+00 1.98037228e+00 -5.19558260e+01 1.41289168e+00 1.98347790e+00 -4.54492967e-01 5.50658159e-03 -3.10562754e-03
130              -5.33726758e+01 1.47933350e+00 2.06184738e+00 -5.29246677e+01 1.47433386e+00 2.06547354e+00 -4.48008092e-01 4.99963258e-03 -3.62616168e-03
131              -5.42716656e+01 1.53651594e+00 2.13695852e+00 -5.38299115e+01 1.53202285e+00 2.14110965e+00 -4.41754066e-01 4.49309009e-03 -4.15113377e-03
132              -5.50928002e+01 1.58495847e+00 2.20251174e+00 -5.46571944e+01 1.58095033e+00 2.20726137e+00 -4.35605837e-01 4.00814036e-03 -4.74963487e-03
133              -5.58137568e+01 1.62093340e+00 2.25125444e+00 -5.53840641e+01 1.61731590e+00 2.25675141e+00 -4.29692743e-01 3.61749363e-03 -5.49697331e-03
134              -5.64109924e+01 1.64111303e+00 2.28361174e+00 -5.59871141e+01 1.63795439e+00 2.28990377e+00 -4.23878344e-01 3.15863682e-03 -6.29203191e-03
135              -5.68640892e+01 1.63849644e+00 2.30149245e+00 -5.64457975e+01 1.63592720e+00 2.30839257e+00 -4.18291645e-01 2.56923488e-03 -6.90012023e-03
136              -5.71575607e+01 1.60573867e+00 2.30438653e+00 -5.67446493e+01 1.60369032e+00 2.31183501e+00 -4.12911423e-01 2.04834953e-03 -7.44848262e-03
137              -5.72807138e+01 1.53562885e+00 2.29429589e+00 -5.68728437e+01 1.53402227e+00 2.30216625e+00 -4.07870112e-01 1.60657970e-03 -7.87035801e-03
138              -5.72206252e+01 1.42034057e+00 2.28088271e+00 -5.68175729e+01 1.41909420e+00 2.28898017e+00 -4.03052370e-01 1.24636769e-03 -8.09745323e-03
139              -5.69671122e+01 1.26096578e+00 2.27152865e+00 -5.65683761e+01 1.25995252e+00 2.27978171e+00 -3.98736066e-01 1.01325549e-03 -8.25305975e-03
140              -5.65186681e+01 1.06756749e+00 2.26932020e+00 -5.61236777e+01 1.06655571e+00 2.27753444e+00 -3.94990413e-01 1.01178598e-03 -8.21424616e-03
141              -5.58837849e+01 8.53867269e-01 2.27842639e+00 -5.54918108e+01 8.52668577e-01 2.28640036e+00 -3.91974147e-01 1.19869170e-03 -7.97397297e-03
142              -5.50811486e+01 6.28810260e-01 2.29950820e+00 -5.46915131e+01 6.27376592e-01 2.30738271e+00 -3.89635560e-01 1.43366816e-03 -7.87450708e-03
143              -5.41301700e+01 3.98836834e-01 2.32727884e+00 -5.37421363e+01 3.97041189e-01 2.33518700e+00 -3.88033627e-01 1.79564515e-03 -7.90815861e-03
144              -5.30562284e+01 1.71736565e-01 2.35970793e+00 -5.26690311e+01 1.69621002e-01 2.36749587e+00 -3.87197299e-01 2.11556344e-03 -7.78794226e-03
145              -5.18909889e+01 -4.22039890e-02 2.39734034e+00 -5.15037636e+01 -4.46659377e-02 2.40483625e+00 -3.87225362e-01 2.46194869e-03 -7.49591187e-03
146              -5.06557149e+01 -2.38790854e-01 2.43979634e+00 -5.02677795e+01 -2.41614049e-01 2.44690667e+00 -3.87935318e-01 2.82319493e-03 -7.11032539e-03
147              -4.93817992e+01 -4.13656096e-01 2.48214268e+00 -4.89924548e+01 -4.16809485e-01 2.48874405e+00 -3.89344465e-01 3.15338903e-03 -6.60137369e-03
148              -4.81035581e+01 -5.66330588e-01 2.51761172e+00 -4.77121287e+01 -5.69796185e-01 2.52363327e+00 -3.91429402e-01 3.46559703e-03 -6.02154964e-03
149              -4.68461840e+01 -6.96472404e-01 2.53653163e+00 -4.64521370e+01 -7.00121919e-01 2.54189158e+00 -3.94047031e-01 3.64951475e-03 -5.35994722e-03
150              -4.56415293e+01 -7.99071268e-01 2.53144321e+00 -4.52443027e+01 -8.02866188e-01 2.53592660e+00 -3.97226518e-01 3.79492005e-03 -4.48338948e-03
151              -4.45068449e+01 -8.76121052e-01 2.50173823e+00 -4.41059441e+01 -8.79934585e-01 2.50528943e+00 -4.00900741e-01 3.81353275e-03 -3.55120216e-03
152              -4.34533175e+01 -9.26632584e-01 2.44726743e+00 -4.30483111e+01 -9.30453641e-01 2.44980195e+00 -4.05006340e-01 3.82105690e-03 -2.53451661e-03
153              -4.24876996e+01 -9.49978418e-01 2.36823383e+00 -4.20782084e+01 -9.53783073e-01 2.36963424e+00 -4.09491153e-01 3.80465436e-03 -1.40041368e-03
154              -4.16088084e+01 -9.47087634e-01 2.26887201e+00 -4.11944810e+01 -9.50755576e-01 2.26919030e+00 -4.14327369e-01 3.66794240e-03 -3.18282316e-04
155              -4.08130524e+01 -9.23903902e-01 2.15294328e+00 -4.03937466e+01 -9.27340154e-01 2.15205421e+00 -4.19305726e-01 3.43625266e-03 8.89075559e-04
156              -4.00907522e+01 -8.86386395e-01 2.02602503e+00 -3.96662983e+01 -8.89598260e-01 2.02378595e+00 -4.24453891e-01 3.21186474e-03 2.23907852e-03
157              -3.94340089e+01 -8.37643780e-01 1.89302124e+00 -3.90042244e+01 -8.40519527e-01 1.88931717e+00 -4.29784474e-01 2.87574724e-03 3.70406681e-03
158              -3.88379904e+01 -7.77711049e-01 1.75822751e+00 -3.84028260e+01 -7.80242416e-01 1.75294813e+00 -4.35164382e-01 2.53136681e-03 5.27937705e-03
159              -3.82984452e+01 -7.13395424e-01 1.62472591e+00 -3.78577926e+01 -7.15557549e-01 1.61786245e+00 -4.40652602e-01 2.16212479e-03 6.86346336e-03
160              -3.78094779e+01 -6.52267495e-01 1.49849431e+00 -3.73634084e+01 -6.54098786e-01 1.49008030e+00 -4.46069430e-01 1.83129068e-03 8.41401184e-03
161              -3.73651480e+01 -5.98848163e-01 1.38330705e+00 -3.69137708e+01 -6.00476539e-01 1.37346993e+00 -4.51377204e-01 1.62837543e-03 9.83712588e-03
162              -3.69590183e+01 -5.53164651e-01 1.27905626e+00 -3.65024992e+01 -5.54687672e-01 1.26784270e+00 -4.56519054e-01 1.52302157e-03 1.12135652e-02
163              -3.65873276e+01 -5.12127214e-01 1.18476770e+00 -3.61256780e+01 -5.13596580e-01 1.17217502e+00 -4.61649590e-01 1.46936624e-03 1.25926785e-02
164              -3.62483061e+01 -4.76112271e-01 1.09726196e+00 -3.57815924e+01 -4.77587936e-01 1.08318035e+00 -4.66713727e-01 1.47566471e-03 1.40816145e-02
165              -3.59381033e+01 -4.47512550e-01 1.01453814e+00 -3.54664771e+01 -4.49020947e-01 9.99085261e-01 -4.71626229e-01 1.50839720e-03 1.54528757e-02
166              -3.56495892e+01 -4.27279698e-01 9.36136374e-01 -3.51732232e+01 -4.28834733e-01 9.19394768e-01 -4.76366001e-01 1.55503550e-03 1.67416059e-02
167              -3.53795438e+01 -4.16172874e-01 8.61010544e-01 -3.48984980e+01 -4.17768276e-01 8.42909996e-01 -4.81045769e-01 1.59540191e-03 1.81005478e-02
168              -3.51243457e+01 -4.13260685e-01 7.90248956e-01 -3.46387939e+01 -4.14932954e-01 7.70926854e-01 -4.85551852e-01 1.67226952e-03 1.93221022e-02
169              -3.48830230e+01 -4.16558326e-01 7.22014362e-01 -3.43929988e+01 -4.18451805e-01 7.01641279e-01 -4.90024250e-01 1.89347899e-03 2.03730825e-02
170              -3.46620777e+01 -4.22532496e-01 6.52063080e-01 -3.41677003e+01 -4.24687921e-01 6.30844600e-01 -4.94377465e-01 2.15542484e-03 2.12184797e-02
171              -3.44666870e+01 -4.29353976e-01 5.78874136e-01 -3.39680115e+01 -4.31788719e-01 5.57034657e-01 -4.98675517e-01 2.43474303e-03 2.18394792e-02
172              -3.43009054e+01 -4.34569656e-01 5.01799215e-01 -3.37979423e+01 -4.37222991e-01 4.79505378e-01 -5.02963107e-01 2.65333498e-03 2.22938366e-02
173              -3.41643315e+01 -4.34777851e-01 4.21713351e-01 -3.36570622e+01 -4.37584299e-01 3.99051326e-01 -5.07269318e-01 2.80644815e-03 2.26620248e-02
174              -3.40525668e+01 -4.31902376e-01 3.38020643e-01 -3.35409933e+01 -4.34821852e-01 3.15143560e-01 -5.11573541e-01 2.91947555e-03 2.28770828e-02
175              -3.39613258e+01 -4.28951981e-01 2.57127599e-01 -3.34454894e+01 -4.31985271e-01 2.34050049e-01 -5.15836443e-01 3.03328956e-03 2.30775500e-02
176              -3.38851599e+01 -4.27868207e-01 1.84862927e-01 -3.33652159e+01 -4.31120922e-01 1.61598179e-01 -5.19944010e-01 3.25271452e-03 2.32647478e-02
177              -3.38282343e+01 -4.23946999e-01 1.29724268e-01 -3.33042867e+01 -4.27406713e-01 1.06350317e-01 -5.23947563e-01 3.45971359e-03 2.33739507e-02
178              -3.37888936e+01 -4.15236125e-01 9.87155055e-02 -3.32611653e+01 -4.18969578e-01 7.53214138e-02 -5.27728256e-01 3.73345288e-03 2.33940916e-02
179              -3.37668288e+01 -4.02228372e-01 1.03510942e-01 -3.32355835e+01 -4.06312976e-01 8.01057249e-02 -5.31245214e-01 4.08460378e-03 2.34052175e-02
180              -3.37551640e+01 -3.87268365e-01 1.47579442e-01 -3.32205697e+01 -3.91657682e-01 1.24243471e-01 -5.34594236e-01 4.38931640e-03 2.33359709e-02
181              -3.37487933e+01 -3.71623678e-01 2.32129621e-01 -3.32110542e+01 -3.76224230e-01 2.08920160e-01 -5.37739163e-01 4.60055219e-03 2.32094612e-02
182              -3.37470687e+01 -3.58875140e-01 3.52092737e-01 -3.32065172e+01 -3.63554811e-01 3.28985563e-01 -5.40551497e-01 4.67967169e-03 2.31071737e-02
183              -3.37506021e+01 -3.50631598e-01 4.94051693e-01 -3.32075219e+01 -3.55320762e-01 4.71074300e-01 -5.43080216e-01 4.68916334e-03 2.29773930e-02
184              -3.37631780e+01 -3.45748828e-01 6.45780234e-01 -3.32177826e+01 -3.50444003e-01 6.22955211e-01 -5.45395351e-01 4.69517504e-03 2.28250234e-02
185              -3.37814110e+01 -3.42830273e-01 7.91462178e-01 -3.32339093e+01 -3.47418937e-01 7.68738623e-01 -5.47501754e-01 4.58866396e-03 2.27235551e-02
186              -3.37979252e+01 -3.40899731e-01 9.22151839e-01 -3.32486635e+01 -3.45347540e-01 8.99466233e-01 -5.49261725e-01 4.44780996e-03 2.26856057e-02
187              -3.38092849e+01 -3.36569828e-01 1.03206770e+00 -3.32585685e+01 -3.40760746e-01 1.00928557e+00 -5.50716399e-01 4.19091854e-03 2.27821289e-02
188              -3.38047468e+01 -3.27836963e-01 1.11606976e+00 -3.32529002e+01 -3.31749633e-01 1.09344582e+00 -5.51846613e-01 3.91267013e-03 2.26239428e-02
189              -3.37781212e+01 -3.10126359e-01 1.16878535e+00 -3.32253484e+01 -3.13898264e-01 1.14617504e+00 -5.52772747e-01 3.77190478e-03 2.26103049e-02
190              -3.37241411e+01 -2.79731572e-01 1.18719664e+00 -3.31706542e+01 -2.83378373e-01 1.16459506e+00 -5.53486981e-01 3.64680048e-03 2.26015812e-02