# Solver information
# Time        	U_solver      	Ux_initial    	Ux_final      	Ux_iters      	Uy_initial    	Uy_final      	Uy_iters      	Uz_initial    	Uz_final      	Uz_iters      	U_converged   	p_solver      	p_initial     	p_final       	p_iters       	p_converged   
1             	smoothSolver	8.766500e-02	8.402010e-03	7	5.924760e-01	4.692110e-02	7	3.972670e-01	3.642440e-02	5	false	GAMG	1.000000e+00	5.882620e-03	5	true
2             	smoothSolver	3.849080e-02	2.997810e-03	8	3.892920e-01	3.879330e-02	7	1.603540e-01	1.343250e-02	7	false	GAMG	7.621250e-02	3.304990e-04	5	true
3             	smoothSolver	2.001440e-02	1.763120e-03	8	3.005380e-01	2.365960e-02	8	1.089880e-01	9.869810e-03	7	false	GAMG	5.209580e-02	4.997300e-04	4	true
4             	smoothSolver	1.355780e-02	1.234600e-03	8	2.425270e-01	1.848970e-02	8	9.844540e-02	9.074310e-03	7	false	GAMG	4.568260e-02	3.957550e-04	4	true
5             	smoothSolver	1.052720e-02	9.235380e-04	8	2.090820e-01	2.064460e-02	7	1.014390e-01	9.477450e-03	7	false	GAMG	4.122550e-02	3.348820e-04	4	true
6             	smoothSolver	8.505970e-03	7.247110e-04	8	1.872490e-01	1.819370e-02	7	1.068630e-01	1.018860e-02	7	false	GAMG	3.692330e-02	2.764500e-04	4	true
7             	smoothSolver	7.140890e-03	5.999120e-04	8	1.687500e-01	1.608720e-02	7	1.168850e-01	1.114000e-02	7	false	GAMG	3.292030e-02	2.238310e-04	4	true
8             	smoothSolver	6.132780e-03	5.213590e-04	8	1.506810e-01	1.406400e-02	7	1.277690e-01	1.210420e-02	7	false	GAMG	3.008420e-02	1.804690e-04	4	true
9             	smoothSolver	5.371270e-03	4.650940e-04	8	1.349420e-01	1.236360e-02	7	1.344610e-01	1.267720e-02	7	false	GAMG	2.796840e-02	1.485020e-04	4	true
10            	smoothSolver	4.797020e-03	4.197040e-04	8	1.218610e-01	1.104340e-02	7	1.236640e-01	1.156950e-02	7	false	GAMG	2.627660e-02	1.274490e-04	4	true
11            	smoothSolver	4.369790e-03	3.798910e-04	8	1.099180e-01	9.980770e-03	7	1.118890e-01	1.040640e-02	7	false	GAMG	2.512170e-02	1.200240e-04	4	true
12            	smoothSolver	4.073080e-03	3.484320e-04	8	9.997090e-02	9.203510e-03	7	1.065640e-01	9.994930e-03	7	false	GAMG	2.420880e-02	1.199200e-04	4	true
13            	smoothSolver	3.861880e-03	3.252890e-04	8	9.096050e-02	8.537800e-03	7	1.030450e-01	9.750020e-03	7	false	GAMG	2.359780e-02	1.210070e-04	4	true
14            	smoothSolver	3.704050e-03	3.105330e-04	8	8.388840e-02	8.006980e-03	7	9.727060e-02	9.261350e-03	7	false	GAMG	2.303080e-02	1.223150e-04	4	true
15            	smoothSolver	3.550100e-03	2.998340e-04	8	7.817310e-02	7.539790e-03	7	8.699150e-02	8.383260e-03	7	false	GAMG	2.247900e-02	1.218840e-04	4	true
16            	smoothSolver	3.381210e-03	2.864860e-04	8	7.269730e-02	7.062480e-03	7	7.865450e-02	7.594330e-03	7	false	GAMG	2.182050e-02	1.155130e-04	4	true
17            	smoothSolver	3.208590e-03	2.732430e-04	8	6.786490e-02	6.604150e-03	7	7.183830e-02	6.889670e-03	7	false	GAMG	2.097240e-02	1.076050e-04	4	true
18            	smoothSolver	3.039190e-03	2.601510e-04	8	6.364410e-02	6.133160e-03	7	6.639180e-02	6.341670e-03	7	false	GAMG	2.013320e-02	9.864080e-05	4	true
19            	smoothSolver	2.883820e-03	2.474460e-04	8	5.975420e-02	5.712920e-03	7	6.226750e-02	5.941750e-03	7	false	GAMG	1.932770e-02	9.178310e-05	4	true
20            	smoothSolver	2.751400e-03	2.361780e-04	8	5.652590e-02	5.368170e-03	7	5.939010e-02	5.642140e-03	7	false	GAMG	1.867210e-02	8.919050e-05	4	true
21            	smoothSolver	2.638040e-03	2.261530e-04	8	5.408310e-02	5.136770e-03	7	5.698800e-02	5.426980e-03	7	false	GAMG	1.803750e-02	8.949710e-05	4	true
22            	smoothSolver	2.535930e-03	2.171660e-04	8	5.223690e-02	4.991200e-03	7	5.476770e-02	5.239500e-03	7	false	GAMG	1.735990e-02	9.075540e-05	4	true
23            	smoothSolver	2.428960e-03	2.086510e-04	8	5.035890e-02	4.878530e-03	7	5.233500e-02	5.045630e-03	7	false	GAMG	1.666520e-02	8.946460e-05	4	true
24            	smoothSolver	2.336300e-03	2.011280e-04	8	4.879410e-02	4.751050e-03	7	5.028560e-02	4.875230e-03	7	false	GAMG	1.594000e-02	8.386230e-05	4	true
25            	smoothSolver	2.249240e-03	1.930690e-04	8	4.697580e-02	4.547850e-03	7	4.802870e-02	4.647610e-03	7	false	GAMG	1.529170e-02	7.684260e-05	4	true
26            	smoothSolver	2.163710e-03	1.855110e-04	8	4.459830e-02	4.292600e-03	7	4.541570e-02	4.408060e-03	7	false	GAMG	1.474960e-02	7.090180e-05	4	true
27            	smoothSolver	2.055700e-03	1.773840e-04	8	4.191840e-02	4.034810e-03	7	4.248560e-02	4.112620e-03	7	false	GAMG	1.424780e-02	6.893750e-05	4	true
28            	smoothSolver	1.947730e-03	1.685270e-04	8	3.928400e-02	3.780520e-03	7	3.938510e-02	3.787580e-03	7	false	GAMG	1.381020e-02	6.698240e-05	4	true
29            	smoothSolver	1.839700e-03	1.594040e-04	8	3.689670e-02	3.525530e-03	7	3.675980e-02	3.505980e-03	7	false	GAMG	1.335760e-02	6.475680e-05	4	true
30            	smoothSolver	1.740560e-03	1.489480e-04	8	3.467500e-02	3.284780e-03	7	3.439850e-02	3.240360e-03	7	false	GAMG	1.291870e-02	6.287780e-05	4	true
31            	smoothSolver	1.640320e-03	1.381680e-04	8	3.276020e-02	3.066870e-03	7	3.232180e-02	2.975880e-03	7	false	GAMG	1.244840e-02	6.073870e-05	4	true
32            	smoothSolver	1.545390e-03	1.287260e-04	8	3.107430e-02	2.860620e-03	7	3.042820e-02	2.738800e-03	7	false	GAMG	1.202340e-02	5.845830e-05	4	true
33            	smoothSolver	1.457560e-03	1.204300e-04	8	2.976640e-02	2.703830e-03	7	2.880580e-02	2.549040e-03	7	false	GAMG	1.164950e-02	5.546970e-05	4	true
34            	smoothSolver	1.379220e-03	1.125050e-04	8	2.886120e-02	2.593420e-03	7	2.748470e-02	2.380740e-03	7	false	GAMG	1.135170e-02	5.193890e-05	4	true
35            	smoothSolver	1.318760e-03	1.056470e-04	8	2.819040e-02	2.495200e-03	7	2.633210e-02	2.228170e-03	7	false	GAMG	1.107160e-02	4.782810e-05	4	true
36            	smoothSolver	1.263920e-03	9.921050e-05	8	2.756610e-02	2.399960e-03	7	2.516750e-02	2.097160e-03	7	false	GAMG	1.075300e-02	4.492100e-05	4	true
37            	smoothSolver	1.203710e-03	9.317870e-05	8	2.683880e-02	2.302580e-03	7	2.396170e-02	1.971040e-03	7	false	GAMG	1.037860e-02	4.398750e-05	4	true
38            	smoothSolver	1.143060e-03	8.824230e-05	8	2.605230e-02	2.212880e-03	7	2.261210e-02	1.851010e-03	7	false	GAMG	9.939060e-03	4.425140e-05	4	true
39            	smoothSolver	1.082990e-03	8.430830e-05	8	2.526790e-02	2.149930e-03	7	2.137460e-02	1.754140e-03	7	false	GAMG	9.495420e-03	4.514640e-05	4	true
40            	smoothSolver	1.028240e-03	8.116750e-05	8	2.437950e-02	2.079680e-03	7	2.023180e-02	1.668610e-03	7	false	GAMG	9.086500e-03	4.588870e-05	4	true
41            	smoothSolver	9.817890e-04	7.832590e-05	8	2.336650e-02	1.981700e-03	7	1.922520e-02	1.588560e-03	7	false	GAMG	8.716030e-03	4.584300e-05	4	true
42            	smoothSolver	9.353970e-04	7.565720e-05	8	2.230180e-02	1.880600e-03	7	1.837190e-02	1.513790e-03	7	false	GAMG	8.382180e-03	4.512100e-05	4	true
43            	smoothSolver	8.874060e-04	7.247530e-05	8	2.116760e-02	1.774810e-03	7	1.754520e-02	1.440070e-03	7	false	GAMG	8.058580e-03	4.327010e-05	4	true
44            	smoothSolver	8.428230e-04	6.891380e-05	8	1.999670e-02	1.673690e-03	7	1.667530e-02	1.363410e-03	7	false	GAMG	7.749160e-03	4.131220e-05	4	true
45            	smoothSolver	8.028510e-04	6.551290e-05	8	1.887530e-02	1.593790e-03	7	1.586150e-02	1.289860e-03	7	false	GAMG	7.462560e-03	3.958780e-05	4	true
46            	smoothSolver	7.702040e-04	6.275790e-05	8	1.796060e-02	1.532260e-03	7	1.510080e-02	1.229960e-03	7	false	GAMG	7.193650e-03	3.791170e-05	4	true
47            	smoothSolver	7.424440e-04	6.053170e-05	8	1.727860e-02	1.481050e-03	7	1.456350e-02	1.189560e-03	7	false	GAMG	6.943890e-03	3.624450e-05	4	true
48            	smoothSolver	7.195440e-04	5.843000e-05	8	1.679700e-02	1.436400e-03	7	1.415680e-02	1.160680e-03	7	false	GAMG	6.732080e-03	3.488300e-05	4	true
49            	smoothSolver	6.978230e-04	5.615900e-05	8	1.630610e-02	1.387320e-03	7	1.379080e-02	1.131350e-03	7	false	GAMG	6.547500e-03	3.408200e-05	4	true
50            	smoothSolver	6.765680e-04	5.356220e-05	8	1.578530e-02	1.335150e-03	7	1.337320e-02	1.096120e-03	7	false	GAMG	6.369910e-03	3.314730e-05	4	true
51            	smoothSolver	6.545900e-04	5.080510e-05	8	1.515770e-02	1.273330e-03	7	1.294430e-02	1.053940e-03	7	false	GAMG	6.183050e-03	3.173540e-05	4	true
52            	smoothSolver	6.327560e-04	4.818950e-05	8	1.455760e-02	1.212460e-03	7	1.253310e-02	1.018560e-03	7	false	GAMG	5.988190e-03	2.991330e-05	4	true
53            	smoothSolver	6.104100e-04	4.597770e-05	8	1.396210e-02	1.159130e-03	7	1.215800e-02	9.957760e-04	7	false	GAMG	5.785990e-03	2.794810e-05	4	true
54            	smoothSolver	5.890040e-04	5.844390e-05	7	1.348070e-02	1.115530e-03	7	1.181370e-02	9.765120e-04	7	false	GAMG	5.569800e-03	2.594310e-05	4	true
55            	smoothSolver	5.682200e-04	5.639700e-05	7	1.304270e-02	1.074870e-03	7	1.147230e-02	9.572120e-04	7	false	GAMG	5.372380e-03	2.445490e-05	4	true
56            	smoothSolver	5.510490e-04	5.451880e-05	7	1.267990e-02	1.043180e-03	7	1.115120e-02	9.383470e-04	7	false	GAMG	5.177270e-03	2.325960e-05	4	true
57            	smoothSolver	5.351350e-04	5.273470e-05	7	1.234210e-02	1.019670e-03	7	1.083340e-02	9.184080e-04	7	false	GAMG	5.016540e-03	2.240700e-05	4	true
58            	smoothSolver	5.225030e-04	5.103110e-05	7	1.206030e-02	1.005570e-03	7	1.050590e-02	8.939740e-04	7	false	GAMG	4.875860e-03	2.190230e-05	4	true
59            	smoothSolver	5.106010e-04	4.993990e-05	7	1.184160e-02	9.946590e-04	7	1.021410e-02	8.689700e-04	7	false	GAMG	4.761820e-03	2.137750e-05	4	true
60            	smoothSolver	4.995630e-04	4.936300e-05	7	1.163730e-02	9.789880e-04	7	9.936060e-03	8.450820e-04	7	false	GAMG	4.651190e-03	2.078660e-05	4	true
61            	smoothSolver	4.883980e-04	3.708890e-05	8	1.143600e-02	9.662790e-04	7	9.678150e-03	8.236950e-04	7	false	GAMG	4.536820e-03	2.001110e-05	4	true
62            	smoothSolver	4.767120e-04	3.646290e-05	8	1.123880e-02	9.542940e-04	7	9.444680e-03	8.035270e-04	7	false	GAMG	4.417010e-03	1.940600e-05	4	true
63            	smoothSolver	4.636280e-04	3.547580e-05	8	1.098060e-02	9.346320e-04	7	9.181860e-03	7.819560e-04	7	false	GAMG	4.298680e-03	1.864630e-05	4	true
64            	smoothSolver	4.527190e-04	3.449210e-05	8	1.068270e-02	9.046710e-04	7	8.899420e-03	7.569720e-04	7	false	GAMG	4.173000e-03	1.775600e-05	4	true
65            	smoothSolver	4.398800e-04	3.354430e-05	8	1.034560e-02	8.740490e-04	7	8.602770e-03	7.324960e-04	7	false	GAMG	4.056510e-03	1.723440e-05	4	true
66            	smoothSolver	4.280730e-04	3.267410e-05	8	1.000460e-02	8.411800e-04	7	8.332060e-03	7.077880e-04	7	false	GAMG	3.936940e-03	1.679970e-05	4	true
67            	smoothSolver	4.147070e-04	3.171080e-05	8	9.639980e-03	8.102730e-04	7	8.031620e-03	6.817190e-04	7	false	GAMG	3.827870e-03	1.648830e-05	4	true
68            	smoothSolver	4.005500e-04	3.054250e-05	8	9.286820e-03	7.792300e-04	7	7.726730e-03	6.490860e-04	7	false	GAMG	3.715090e-03	1.570820e-05	4	true
69            	smoothSolver	3.840370e-04	2.902150e-05	8	8.929980e-03	7.458300e-04	7	7.392880e-03	6.103460e-04	7	false	GAMG	3.617010e-03	1.508750e-05	4	true
70            	smoothSolver	3.690390e-04	3.638310e-05	7	8.643740e-03	7.182410e-04	7	7.097290e-03	5.694170e-04	7	false	GAMG	3.521760e-03	1.430900e-05	4	true
71            	smoothSolver	3.565600e-04	3.488770e-05	7	8.400660e-03	6.971750e-04	7	6.861100e-03	5.401230e-04	7	false	GAMG	3.445600e-03	1.393170e-05	4	true
72            	smoothSolver	3.491110e-04	3.411170e-05	7	8.276820e-03	6.850530e-04	7	6.719940e-03	5.318300e-04	7	false	GAMG	3.368250e-03	1.387260e-05	4	true
73            	smoothSolver	3.439670e-04	3.400570e-05	7	8.234320e-03	6.841980e-04	7	6.645680e-03	5.385190e-04	7	false	GAMG	3.319110e-03	1.411880e-05	4	true
74            	smoothSolver	3.420570e-04	3.416980e-05	7	8.271320e-03	6.912620e-04	7	6.635030e-03	5.505090e-04	7	false	GAMG	3.278340e-03	1.426370e-05	4	true
75            	smoothSolver	3.402690e-04	2.589630e-05	8	8.271870e-03	6.966620e-04	7	6.618410e-03	5.560240e-04	7	false	GAMG	3.264300e-03	1.430290e-05	4	true
76            	smoothSolver	3.390680e-04	2.570800e-05	8	8.215750e-03	6.959840e-04	7	6.579320e-03	5.546660e-04	7	false	GAMG	3.243200e-03	1.433750e-05	4	true
77            	smoothSolver	3.364540e-04	2.529670e-05	8	8.050650e-03	6.848940e-04	7	6.482690e-03	5.447650e-04	7	false	GAMG	3.222280e-03	1.413580e-05	4	true
78            	smoothSolver	3.348600e-04	2.526590e-05	8	7.870920e-03	6.723710e-04	7	6.386680e-03	5.345320e-04	7	false	GAMG	3.193010e-03	1.395780e-05	4	true
79            	smoothSolver	3.334040e-04	2.577710e-05	8	7.711350e-03	6.649480e-04	7	6.329090e-03	5.296450e-04	7	false	GAMG	3.166690e-03	1.430240e-05	4	true
80            	smoothSolver	3.342200e-04	2.674110e-05	8	7.689390e-03	6.734050e-04	7	6.328250e-03	5.398550e-04	7	false	GAMG	3.145570e-03	1.465970e-05	4	true
81            	smoothSolver	3.375420e-04	2.781830e-05	8	7.695390e-03	6.881110e-04	7	6.362600e-03	5.562810e-04	7	false	GAMG	3.144150e-03	1.493880e-05	4	true
82            	smoothSolver	3.438920e-04	2.860520e-05	8	7.726430e-03	6.924760e-04	7	6.404490e-03	5.691740e-04	7	false	GAMG	3.135700e-03	1.474630e-05	4	true
83            	smoothSolver	3.459910e-04	2.895300e-05	8	7.666140e-03	6.887610e-04	7	6.369420e-03	5.662170e-04	7	false	GAMG	3.120320e-03	1.454460e-05	4	true
84            	smoothSolver	3.479490e-04	2.906450e-05	8	7.609150e-03	6.769480e-04	7	6.299290e-03	5.552800e-04	7	false	GAMG	3.088480e-03	1.427430e-05	4	true
85            	smoothSolver	3.491990e-04	2.934250e-05	8	7.548370e-03	6.660130e-04	7	6.225650e-03	5.438050e-04	7	false	GAMG	3.058950e-03	1.408510e-05	4	true
86            	smoothSolver	3.497040e-04	2.956420e-05	8	7.503450e-03	6.592490e-04	7	6.200200e-03	5.385410e-04	7	false	GAMG	3.016810e-03	1.399000e-05	4	true
87            	smoothSolver	3.485240e-04	2.941890e-05	8	7.473900e-03	6.577840e-04	7	6.183690e-03	5.383270e-04	7	false	GAMG	2.982870e-03	1.396770e-05	4	true
88            	smoothSolver	3.459870e-04	2.874250e-05	8	7.452280e-03	6.535730e-04	7	6.159830e-03	5.387110e-04	7	false	GAMG	2.940970e-03	1.361810e-05	4	true
89            	smoothSolver	3.407970e-04	2.773130e-05	8	7.347790e-03	6.437570e-04	7	6.116130e-03	5.364870e-04	7	false	GAMG	2.927450e-03	1.314760e-05	4	true
90            	smoothSolver	3.374400e-04	2.688170e-05	8	7.296310e-03	6.338800e-04	7	6.088630e-03	5.336990e-04	7	false	GAMG	2.917320e-03	1.251430e-05	4	true
91            	smoothSolver	3.343000e-04	2.634810e-05	8	7.243730e-03	6.227990e-04	7	6.055250e-03	5.273310e-04	7	false	GAMG	2.902180e-03	1.205490e-05	4	true
92            	smoothSolver	3.320310e-04	2.612820e-05	8	7.210820e-03	6.180310e-04	7	6.042300e-03	5.241700e-04	7	false	GAMG	2.869520e-03	1.170860e-05	4	true
93            	smoothSolver	3.300180e-04	2.608060e-05	8	7.148570e-03	6.189270e-04	7	6.024970e-03	5.248090e-04	7	false	GAMG	2.841220e-03	1.164890e-05	4	true
94            	smoothSolver	3.263920e-04	2.574490e-05	8	7.097350e-03	6.197080e-04	7	5.988780e-03	5.255850e-04	7	false	GAMG	2.796100e-03	1.167440e-05	4	true
95            	smoothSolver	3.187990e-04	2.491260e-05	8	6.992140e-03	6.161490e-04	7	5.871700e-03	5.196590e-04	7	false	GAMG	2.756330e-03	1.170200e-05	4	true
96            	smoothSolver	3.112670e-04	2.401630e-05	8	6.857120e-03	6.047360e-04	7	5.742190e-03	5.079270e-04	7	false	GAMG	2.718500e-03	1.147380e-05	4	true
97            	smoothSolver	3.037380e-04	2.339890e-05	8	6.718720e-03	5.917400e-04	7	5.608830e-03	4.930010e-04	7	false	GAMG	2.681480e-03	1.133650e-05	4	true
98            	smoothSolver	2.969480e-04	2.296950e-05	8	6.613750e-03	5.757020e-04	7	5.538740e-03	4.816420e-04	7	false	GAMG	2.646350e-03	1.167780e-05	4	true
99            	smoothSolver	2.912710e-04	2.282070e-05	8	6.527460e-03	5.631450e-04	7	5.507040e-03	4.753220e-04	7	false	GAMG	2.628670e-03	1.220780e-05	4	true
100           	smoothSolver	2.895490e-04	2.260770e-05	8	6.506980e-03	5.601660e-04	7	5.513030e-03	4.714390e-04	7	false	GAMG	2.614160e-03	1.237510e-05	4	true
101           	smoothSolver	2.875500e-04	2.206060e-05	8	6.508810e-03	5.578990e-04	7	5.492070e-03	4.639070e-04	7	false	GAMG	2.615740e-03	1.227260e-05	4	true
102           	smoothSolver	2.865130e-04	2.837850e-05	7	6.492590e-03	5.505110e-04	7	5.449450e-03	4.570820e-04	7	false	GAMG	2.619810e-03	1.184320e-05	4	true
103           	smoothSolver	2.848120e-04	2.749740e-05	7	6.446940e-03	5.365310e-04	7	5.359660e-03	4.434430e-04	7	false	GAMG	2.622140e-03	1.115620e-05	4	true
104           	smoothSolver	2.837840e-04	2.689530e-05	7	6.405640e-03	5.215310e-04	7	5.287550e-03	4.299520e-04	7	false	GAMG	2.624750e-03	1.098180e-05	4	true
105           	smoothSolver	2.816830e-04	2.667140e-05	7	6.355620e-03	5.110370e-04	7	5.243070e-03	4.204600e-04	7	false	GAMG	2.627150e-03	1.149770e-05	4	true
106           	smoothSolver	2.800720e-04	2.646790e-05	7	6.338690e-03	5.032830e-04	7	5.223260e-03	4.179770e-04	7	false	GAMG	2.625430e-03	1.184210e-05	4	true
107           	smoothSolver	2.749100e-04	2.601190e-05	7	6.302110e-03	4.970440e-04	7	5.191380e-03	4.170840e-04	7	false	GAMG	2.622290e-03	1.202080e-05	4	true
108           	smoothSolver	2.687330e-04	2.512830e-05	7	6.223360e-03	4.893030e-04	7	5.114980e-03	4.118980e-04	7	false	GAMG	2.618130e-03	1.178260e-05	4	true
109           	smoothSolver	2.615890e-04	2.420080e-05	7	6.079070e-03	4.796130e-04	7	5.014480e-03	4.002270e-04	7	false	GAMG	2.609770e-03	1.118070e-05	4	true
110           	smoothSolver	2.559680e-04	2.363480e-05	7	5.946170e-03	4.684670e-04	7	4.911060e-03	3.856650e-04	7	false	GAMG	2.577650e-03	1.032300e-05	4	true
111           	smoothSolver	2.505500e-04	2.339590e-05	7	5.789040e-03	4.611750e-04	7	4.817230e-03	3.726980e-04	7	false	GAMG	2.532550e-03	1.008680e-05	4	true
112           	smoothSolver	2.474890e-04	2.355440e-05	7	5.701240e-03	4.621550e-04	7	4.752970e-03	3.668650e-04	7	false	GAMG	2.476300e-03	1.025510e-05	4	true
113           	smoothSolver	2.443710e-04	2.369170e-05	7	5.659300e-03	4.691980e-04	7	4.703500e-03	3.680070e-04	7	false	GAMG	2.428300e-03	1.037610e-05	4	true
114           	smoothSolver	2.416340e-04	2.371570e-05	7	5.627680e-03	4.697440e-04	7	4.650340e-03	3.683620e-04	7	false	GAMG	2.382810e-03	1.018290e-05	4	true
115           	smoothSolver	2.379140e-04	2.364060e-05	7	5.553330e-03	4.651130e-04	7	4.568370e-03	3.658820e-04	7	false	GAMG	2.361680e-03	9.836550e-06	4	true
116           	smoothSolver	2.357650e-04	2.339130e-05	7	5.470630e-03	4.538230e-04	7	4.481030e-03	3.623040e-04	7	false	GAMG	2.334050e-03	9.491880e-06	4	true
117           	smoothSolver	2.329970e-04	2.311690e-05	7	5.376520e-03	4.415480e-04	7	4.399920e-03	3.561680e-04	7	false	GAMG	2.306590e-03	9.294790e-06	4	true
118           	smoothSolver	2.304190e-04	2.296750e-05	7	5.281340e-03	4.314290e-04	7	4.336060e-03	3.510730e-04	7	false	GAMG	2.269930e-03	9.117680e-06	4	true
119           	smoothSolver	2.266100e-04	1.711590e-05	8	5.170720e-03	4.208600e-04	7	4.256390e-03	3.451470e-04	7	false	GAMG	2.239400e-03	9.000650e-06	4	true
120           	smoothSolver	2.218650e-04	1.675740e-05	8	5.069960e-03	4.104840e-04	7	4.186350e-03	3.392390e-04	7	false	GAMG	2.207650e-03	8.834270e-06	4	true
121           	smoothSolver	2.157150e-04	2.156790e-05	7	4.964510e-03	4.026370e-04	7	4.109590e-03	3.300600e-04	7	false	GAMG	2.182210e-03	8.887230e-06	4	true
122           	smoothSolver	2.118720e-04	2.097550e-05	7	4.878100e-03	3.968210e-04	7	4.034970e-03	3.206250e-04	7	false	GAMG	2.143340e-03	8.968130e-06	4	true
123           	smoothSolver	2.090510e-04	2.060800e-05	7	4.801300e-03	3.952700e-04	7	3.976740e-03	3.163030e-04	7	false	GAMG	2.111690e-03	9.143590e-06	4	true
124           	smoothSolver	2.090040e-04	2.047750e-05	7	4.791910e-03	3.971040e-04	7	3.950040e-03	3.168960e-04	7	false	GAMG	2.082010e-03	9.170560e-06	4	true
125           	smoothSolver	2.094860e-04	2.046500e-05	7	4.811690e-03	4.030160e-04	7	3.949790e-03	3.205110e-04	7	false	GAMG	2.066900e-03	9.317040e-06	4	true
126           	smoothSolver	2.103410e-04	2.051940e-05	7	4.846900e-03	4.070510e-04	7	3.958950e-03	3.239770e-04	7	false	GAMG	2.058490e-03	9.285750e-06	4	true
127           	smoothSolver	2.088990e-04	2.051400e-05	7	4.866050e-03	4.065280e-04	7	3.951710e-03	3.232060e-04	7	false	GAMG	2.068080e-03	9.188460e-06	4	true
128           	smoothSolver	2.074000e-04	2.056400e-05	7	4.896670e-03	4.090990e-04	7	3.941830e-03	3.206150e-04	7	false	GAMG	2.072740e-03	8.905220e-06	4	true
129           	smoothSolver	2.059230e-04	1.561500e-05	8	4.894210e-03	4.122950e-04	7	3.903980e-03	3.164540e-04	7	false	GAMG	2.077090e-03	9.014770e-06	4	true
130           	smoothSolver	2.055320e-04	1.569070e-05	8	4.905880e-03	4.215990e-04	7	3.888330e-03	3.127390e-04	7	false	GAMG	2.067220e-03	9.193330e-06	4	true
131           	smoothSolver	2.058410e-04	1.584970e-05	8	4.907180e-03	4.267320e-04	7	3.864740e-03	3.127280e-04	7	false	GAMG	2.065300e-03	9.455900e-06	4	true
132           	smoothSolver	2.078760e-04	1.619770e-05	8	4.944640e-03	4.302200e-04	7	3.886730e-03	3.166540e-04	7	false	GAMG	2.070330e-03	9.575340e-06	4	true
133           	smoothSolver	2.095250e-04	1.643340e-05	8	4.948180e-03	4.321480e-04	7	3.920030e-03	3.244220e-04	7	false	GAMG	2.075940e-03	9.713800e-06	4	true
134           	smoothSolver	2.105170e-04	1.648200e-05	8	4.961200e-03	4.320950e-04	7	3.955480e-03	3.304200e-04	7	false	GAMG	2.070920e-03	9.553400e-06	4	true
135           	smoothSolver	2.105370e-04	1.643390e-05	8	4.908570e-03	4.239950e-04	7	3.968240e-03	3.340920e-04	7	false	GAMG	2.061280e-03	9.483960e-06	4	true
136           	smoothSolver	2.107680e-04	1.636340e-05	8	4.853310e-03	4.145700e-04	7	3.986920e-03	3.347510e-04	7	false	GAMG	2.036530e-03	9.295220e-06	4	true
137           	smoothSolver	2.092410e-04	1.625520e-05	8	4.764800e-03	4.050730e-04	7	3.973910e-03	3.316960e-04	7	false	GAMG	2.021620e-03	9.333000e-06	4	true
138           	smoothSolver	2.083710e-04	1.633700e-05	8	4.722150e-03	4.014700e-04	7	3.969570e-03	3.302550e-04	7	false	GAMG	2.008110e-03	9.287350e-06	4	true
139           	smoothSolver	2.083620e-04	1.646690e-05	8	4.702200e-03	3.995380e-04	7	3.977940e-03	3.313290e-04	7	false	GAMG	2.001890e-03	9.189910e-06	4	true
140           	smoothSolver	2.081750e-04	1.639700e-05	8	4.716670e-03	4.003650e-04	7	3.983110e-03	3.336400e-04	7	false	GAMG	1.989790e-03	9.083060e-06	4	true
141           	smoothSolver	2.066090e-04	1.611330e-05	8	4.711200e-03	3.998340e-04	7	3.968930e-03	3.365540e-04	7	false	GAMG	1.987030e-03	8.975440e-06	4	true
142           	smoothSolver	2.049670e-04	1.569990e-05	8	4.710000e-03	3.981610e-04	7	3.943720e-03	3.354710e-04	7	false	GAMG	1.983810e-03	8.801400e-06	4	true
143           	smoothSolver	2.025790e-04	2.012390e-05	7	4.677770e-03	3.908000e-04	7	3.911150e-03	3.295030e-04	7	false	GAMG	1.990810e-03	8.686310e-06	4	true
144           	smoothSolver	2.012160e-04	1.974880e-05	7	4.652700e-03	3.814340e-04	7	3.869680e-03	3.172240e-04	7	false	GAMG	1.996220e-03	8.632340e-06	4	true
145           	smoothSolver	1.994910e-04	1.958910e-05	7	4.611980e-03	3.742140e-04	7	3.829600e-03	3.054180e-04	7	false	GAMG	2.002900e-03	8.715260e-06	4	true
146           	smoothSolver	1.986570e-04	1.944300e-05	7	4.592550e-03	3.702000e-04	7	3.791820e-03	2.952030e-04	7	false	GAMG	2.002530e-03	8.611580e-06	4	true
147           	smoothSolver	1.973710e-04	1.926690e-05	7	4.583460e-03	3.704930e-04	7	3.758900e-03	2.913660e-04	7	false	GAMG	1.999510e-03	8.581060e-06	4	true
148           	smoothSolver	1.957990e-04	1.893440e-05	7	4.580670e-03	3.735580e-04	7	3.733240e-03	2.907050e-04	7	false	GAMG	1.980450e-03	8.507440e-06	4	true
149           	smoothSolver	1.921130e-04	1.844550e-05	7	4.537910e-03	3.747370e-04	7	3.690290e-03	2.906660e-04	7	false	GAMG	1.963800e-03	8.379600e-06	4	true
150           	smoothSolver	1.886690e-04	1.792710e-05	7	4.499490e-03	3.722770e-04	7	3.637170e-03	2.889640e-04	7	false	GAMG	1.940550e-03	8.151630e-06	4	true
151           	smoothSolver	1.849720e-04	1.745040e-05	7	4.450930e-03	3.636630e-04	7	3.594150e-03	2.843040e-04	7	false	GAMG	1.925690e-03	8.087910e-06	4	true
152           	smoothSolver	1.816470e-04	1.695350e-05	7	4.412260e-03	3.542210e-04	7	3.548960e-03	2.779750e-04	7	false	GAMG	1.904410e-03	8.010020e-06	4	true
153           	smoothSolver	1.774720e-04	1.643650e-05	7	4.364340e-03	3.456950e-04	7	3.492340e-03	2.700580e-04	7	false	GAMG	1.899970e-03	7.843230e-06	4	true
154           	smoothSolver	1.741460e-04	1.606940e-05	7	4.335020e-03	3.420230e-04	7	3.434450e-03	2.631600e-04	7	false	GAMG	1.898980e-03	7.748440e-06	4	true
155           	smoothSolver	1.721780e-04	1.596870e-05	7	4.344540e-03	3.469860e-04	7	3.394030e-03	2.591800e-04	7	false	GAMG	1.908100e-03	7.891210e-06	4	true
156           	smoothSolver	1.720270e-04	1.607040e-05	7	4.370730e-03	3.520730e-04	7	3.381530e-03	2.582000e-04	7	false	GAMG	1.909290e-03	8.183540e-06	4	true
157           	smoothSolver	1.730110e-04	1.648460e-05	7	4.409570e-03	3.603390e-04	7	3.404400e-03	2.606950e-04	7	false	GAMG	1.917810e-03	8.446000e-06	4	true
158           	smoothSolver	1.754590e-04	1.704170e-05	7	4.461660e-03	3.691520e-04	7	3.442590e-03	2.656820e-04	7	false	GAMG	1.916480e-03	8.588270e-06	4	true
159           	smoothSolver	1.769660e-04	1.749830e-05	7	4.483830e-03	3.740690e-04	7	3.469840e-03	2.702380e-04	7	false	GAMG	1.924190e-03	8.618540e-06	4	true
160           	smoothSolver	1.790360e-04	1.785540e-05	7	4.501960e-03	3.763350e-04	7	3.475470e-03	2.732500e-04	7	false	GAMG	1.918830e-03	8.426630e-06	4	true
161           	smoothSolver	1.803490e-04	1.368250e-05	8	4.488310e-03	3.766150e-04	7	3.469610e-03	2.741370e-04	7	false	GAMG	1.923880e-03	8.252450e-06	4	true
162           	smoothSolver	1.815430e-04	1.373990e-05	8	4.490080e-03	3.780950e-04	7	3.465610e-03	2.747370e-04	7	false	GAMG	1.914770e-03	8.155210e-06	4	true
163           	smoothSolver	1.811820e-04	1.372300e-05	8	4.468000e-03	3.769160e-04	7	3.450840e-03	2.735570e-04	7	false	GAMG	1.913910e-03	8.309530e-06	4	true
164           	smoothSolver	1.813440e-04	1.377080e-05	8	4.483010e-03	3.771440e-04	7	3.434550e-03	2.722040e-04	7	false	GAMG	1.898950e-03	8.445740e-06	4	true
165           	smoothSolver	1.809060e-04	1.377320e-05	8	4.484170e-03	3.748980e-04	7	3.430810e-03	2.722540e-04	7	false	GAMG	1.893220e-03	8.701800e-06	4	true
166           	smoothSolver	1.809080e-04	1.371030e-05	8	4.508060e-03	3.736650e-04	7	3.437820e-03	2.732790e-04	7	false	GAMG	1.876920e-03	8.699240e-06	4	true
167           	smoothSolver	1.810570e-04	1.804380e-05	7	4.514400e-03	3.723890e-04	7	3.460120e-03	2.756040e-04	7	false	GAMG	1.876520e-03	8.569110e-06	4	true
168           	smoothSolver	1.823650e-04	1.809610e-05	7	4.534390e-03	3.727050e-04	7	3.479710e-03	2.764700e-04	7	false	GAMG	1.868140e-03	8.220570e-06	4	true
169           	smoothSolver	1.839020e-04	1.820040e-05	7	4.529160e-03	3.730560e-04	7	3.502480e-03	2.777540e-04	7	false	GAMG	1.865160e-03	7.834540e-06	4	true
170           	smoothSolver	1.844960e-04	1.822950e-05	7	4.524800e-03	3.751970e-04	7	3.512460e-03	2.784480e-04	7	false	GAMG	1.854540e-03	7.606100e-06	4	true
171           	smoothSolver	1.845330e-04	1.836540e-05	7	4.512970e-03	3.780680e-04	7	3.527770e-03	2.816490e-04	7	false	GAMG	1.853280e-03	7.558350e-06	4	true
172           	smoothSolver	1.853630e-04	1.849670e-05	7	4.524670e-03	3.831340e-04	7	3.547090e-03	2.852080e-04	7	false	GAMG	1.851360e-03	7.616300e-06	4	true
173           	smoothSolver	1.854340e-04	1.406450e-05	8	4.570790e-03	3.920970e-04	7	3.558230e-03	2.898870e-04	7	false	GAMG	1.858010e-03	7.693050e-06	4	true
174           	smoothSolver	1.856260e-04	1.846860e-05	7	4.633760e-03	3.987570e-04	7	3.573500e-03	2.924240e-04	7	false	GAMG	1.864120e-03	7.712790e-06	4	true
175           	smoothSolver	1.861160e-04	1.845880e-05	7	4.655130e-03	3.986120e-04	7	3.579900e-03	2.928940e-04	7	false	GAMG	1.878400e-03	7.918160e-06	4	true
176           	smoothSolver	1.873950e-04	1.843210e-05	7	4.693050e-03	3.938320e-04	7	3.596430e-03	2.906400e-04	7	false	GAMG	1.882460e-03	8.172840e-06	4	true
177           	smoothSolver	1.879630e-04	1.849740e-05	7	4.700010e-03	3.867970e-04	7	3.611240e-03	2.875500e-04	7	false	GAMG	1.890500e-03	8.413240e-06	4	true
178           	smoothSolver	1.892750e-04	1.866140e-05	7	4.721820e-03	3.806750e-04	7	3.629810e-03	2.843200e-04	7	false	GAMG	1.892550e-03	8.503920e-06	4	true
179           	smoothSolver	1.895830e-04	1.869560e-05	7	4.714530e-03	3.746700e-04	7	3.627200e-03	2.824270e-04	7	false	GAMG	1.892700e-03	8.441630e-06	4	true
180           	smoothSolver	1.890230e-04	1.865760e-05	7	4.704310e-03	3.735550e-04	7	3.622180e-03	2.835590e-04	7	false	GAMG	1.890230e-03	8.217900e-06	4	true
181           	smoothSolver	1.881570e-04	1.851360e-05	7	4.660930e-03	3.726600e-04	7	3.611320e-03	2.868220e-04	7	false	GAMG	1.892050e-03	7.999700e-06	4	true
182           	smoothSolver	1.862990e-04	1.816790e-05	7	4.599220e-03	3.691440e-04	7	3.583330e-03	2.875990e-04	7	false	GAMG	1.887520e-03	7.903040e-06	4	true
183           	smoothSolver	1.833500e-04	1.781460e-05	7	4.508310e-03	3.617440e-04	7	3.538320e-03	2.861170e-04	7	false	GAMG	1.881090e-03	7.910390e-06	4	true
184           	smoothSolver	1.814590e-04	1.757480e-05	7	4.423800e-03	3.514800e-04	7	3.488790e-03	2.821460e-04	7	false	GAMG	1.867060e-03	7.990430e-06	4	true
185           	smoothSolver	1.787090e-04	1.738110e-05	7	4.332590e-03	3.418290e-04	7	3.453970e-03	2.769820e-04	7	false	GAMG	1.857310e-03	7.941060e-06	4	true
186           	smoothSolver	1.772070e-04	1.719740e-05	7	4.267370e-03	3.333280e-04	7	3.422910e-03	2.708200e-04	7	false	GAMG	1.850080e-03	7.743380e-06	4	true
187           	smoothSolver	1.757020e-04	1.707200e-05	7	4.208300e-03	3.302450e-04	7	3.394480e-03	2.681880e-04	7	false	GAMG	1.845080e-03	7.559080e-06	4	true
188           	smoothSolver	1.746890e-04	1.692720e-05	7	4.173160e-03	3.304580e-04	7	3.375870e-03	2.653400e-04	7	false	GAMG	1.843240e-03	7.377920e-06	4	true
189           	smoothSolver	1.721800e-04	1.668520e-05	7	4.129940e-03	3.304620e-04	7	3.360340e-03	2.636110e-04	7	false	GAMG	1.851620e-03	7.256570e-06	4	true
190           	smoothSolver	1.708730e-04	1.645150e-05	7	4.117450e-03	3.283330e-04	7	3.350080e-03	2.594440e-04	7	false	GAMG	1.857210e-03	7.300820e-06	4	true